V -t * -v 1.0a5 -a 0
A -t * -n 1 -p 0 -o 0x7fffffff -c 30 -a 1
A -t * -h 1 -m 1073741823 -s 0
n -t * -a 0 -s 0 -S UP -v circle -c black -i black
n -t * -a 1 -s 1 -S UP -v circle -c black -i black
n -t * -a 2 -s 2 -S UP -v circle -c black -i black
n -t * -a 3 -s 3 -S UP -v circle -c black -i black
l -t * -s 0 -d 1 -S UP -r 1000000 -D 0.01 -c black -o right
l -t * -s 1 -d 2 -S UP -r 1000000 -D 0.01 -c black -o right
l -t * -s 2 -d 3 -S UP -r 1000000 -D 0.01 -c black -o right
+ -t 0.1 -s 0 -d 1 -p tcp -e 40 -c 0 -i 0 -a 0 -x {0.0 3.0 0 ------- null}
- -t 0.1 -s 0 -d 1 -p tcp -e 40 -c 0 -i 0 -a 0 -x {0.0 3.0 0 ------- null}
h -t 0.1 -s 0 -d 1 -p tcp -e 40 -c 0 -i 0 -a 0 -x {0.0 3.0 -1 ------- null}
r -t 0.11032 -s 0 -d 1 -p tcp -e 40 -c 0 -i 0 -a 0 -x {0.0 3.0 0 ------- null}
+ -t 0.11032 -s 1 -d 2 -p tcp -e 40 -c 0 -i 0 -a 0 -x {0.0 3.0 0 ------- null}
- -t 0.11032 -s 1 -d 2 -p tcp -e 40 -c 0 -i 0 -a 0 -x {0.0 3.0 0 ------- null}
h -t 0.11032 -s 1 -d 2 -p tcp -e 40 -c 0 -i 0 -a 0 -x {0.0 3.0 -1 ------- null}
r -t 0.12064 -s 1 -d 2 -p tcp -e 40 -c 0 -i 0 -a 0 -x {0.0 3.0 0 ------- null}
+ -t 0.12064 -s 2 -d 3 -p tcp -e 40 -c 0 -i 0 -a 0 -x {0.0 3.0 0 ------- null}
- -t 0.12064 -s 2 -d 3 -p tcp -e 40 -c 0 -i 0 -a 0 -x {0.0 3.0 0 ------- null}
h -t 0.12064 -s 2 -d 3 -p tcp -e 40 -c 0 -i 0 -a 0 -x {0.0 3.0 -1 ------- null}
r -t 0.13096 -s 2 -d 3 -p tcp -e 40 -c 0 -i 0 -a 0 -x {0.0 3.0 0 ------- null}
+ -t 0.13096 -s 3 -d 2 -p ack -e 40 -c 0 -i 1 -a 0 -x {3.0 0.0 0 ------- null}
- -t 0.13096 -s 3 -d 2 -p ack -e 40 -c 0 -i 1 -a 0 -x {3.0 0.0 0 ------- null}
h -t 0.13096 -s 3 -d 2 -p ack -e 40 -c 0 -i 1 -a 0 -x {3.0 0.0 -1 ------- null}
r -t 0.14128 -s 3 -d 2 -p ack -e 40 -c 0 -i 1 -a 0 -x {3.0 0.0 0 ------- null}
+ -t 0.14128 -s 2 -d 1 -p ack -e 40 -c 0 -i 1 -a 0 -x {3.0 0.0 0 ------- null}
- -t 0.14128 -s 2 -d 1 -p ack -e 40 -c 0 -i 1 -a 0 -x {3.0 0.0 0 ------- null}
h -t 0.14128 -s 2 -d 1 -p ack -e 40 -c 0 -i 1 -a 0 -x {3.0 0.0 -1 ------- null}
r -t 0.1516 -s 2 -d 1 -p ack -e 40 -c 0 -i 1 -a 0 -x {3.0 0.0 0 ------- null}
+ -t 0.1516 -s 1 -d 0 -p ack -e 40 -c 0 -i 1 -a 0 -x {3.0 0.0 0 ------- null}
- -t 0.1516 -s 1 -d 0 -p ack -e 40 -c 0 -i 1 -a 0 -x {3.0 0.0 0 ------- null}
h -t 0.1516 -s 1 -d 0 -p ack -e 40 -c 0 -i 1 -a 0 -x {3.0 0.0 -1 ------- null}
r -t 0.16192 -s 1 -d 0 -p ack -e 40 -c 0 -i 1 -a 0 -x {3.0 0.0 0 ------- null}
+ -t 0.16192 -s 0 -d 1 -p tcp -e 1040 -c 0 -i 2 -a 0 -x {0.0 3.0 1 ------- null}
- -t 0.16192 -s 0 -d 1 -p tcp -e 1040 -c 0 -i 2 -a 0 -x {0.0 3.0 1 ------- null}
h -t 0.16192 -s 0 -d 1 -p tcp -e 1040 -c 0 -i 2 -a 0 -x {0.0 3.0 -1 ------- null}
+ -t 0.16192 -s 0 -d 1 -p tcp -e 1040 -c 0 -i 3 -a 0 -x {0.0 3.0 2 ------- null}
- -t 0.17024 -s 0 -d 1 -p tcp -e 1040 -c 0 -i 3 -a 0 -x {0.0 3.0 2 ------- null}
h -t 0.17024 -s 0 -d 1 -p tcp -e 1040 -c 0 -i 3 -a 0 -x {0.0 3.0 -1 ------- null}
r -t 0.18024 -s 0 -d 1 -p tcp -e 1040 -c 0 -i 2 -a 0 -x {0.0 3.0 1 ------- null}
+ -t 0.18024 -s 1 -d 2 -p tcp -e 1040 -c 0 -i 2 -a 0 -x {0.0 3.0 1 ------- null}
- -t 0.18024 -s 1 -d 2 -p tcp -e 1040 -c 0 -i 2 -a 0 -x {0.0 3.0 1 ------- null}
h -t 0.18024 -s 1 -d 2 -p tcp -e 1040 -c 0 -i 2 -a 0 -x {0.0 3.0 -1 ------- null}
r -t 0.18856 -s 0 -d 1 -p tcp -e 1040 -c 0 -i 3 -a 0 -x {0.0 3.0 2 ------- null}
+ -t 0.18856 -s 1 -d 2 -p tcp -e 1040 -c 0 -i 3 -a 0 -x {0.0 3.0 2 ------- null}
- -t 0.18856 -s 1 -d 2 -p tcp -e 1040 -c 0 -i 3 -a 0 -x {0.0 3.0 2 ------- null}
h -t 0.18856 -s 1 -d 2 -p tcp -e 1040 -c 0 -i 3 -a 0 -x {0.0 3.0 -1 ------- null}
r -t 0.19856 -s 1 -d 2 -p tcp -e 1040 -c 0 -i 2 -a 0 -x {0.0 3.0 1 ------- null}
+ -t 0.19856 -s 2 -d 3 -p tcp -e 1040 -c 0 -i 2 -a 0 -x {0.0 3.0 1 ------- null}
- -t 0.19856 -s 2 -d 3 -p tcp -e 1040 -c 0 -i 2 -a 0 -x {0.0 3.0 1 ------- null}
h -t 0.19856 -s 2 -d 3 -p tcp -e 1040 -c 0 -i 2 -a 0 -x {0.0 3.0 -1 ------- null}
r -t 0.20688 -s 1 -d 2 -p tcp -e 1040 -c 0 -i 3 -a 0 -x {0.0 3.0 2 ------- null}
+ -t 0.20688 -s 2 -d 3 -p tcp -e 1040 -c 0 -i 3 -a 0 -x {0.0 3.0 2 ------- null}
- -t 0.20688 -s 2 -d 3 -p tcp -e 1040 -c 0 -i 3 -a 0 -x {0.0 3.0 2 ------- null}
h -t 0.20688 -s 2 -d 3 -p tcp -e 1040 -c 0 -i 3 -a 0 -x {0.0 3.0 -1 ------- null}
r -t 0.21688 -s 2 -d 3 -p tcp -e 1040 -c 0 -i 2 -a 0 -x {0.0 3.0 1 ------- null}
r -t 0.2252 -s 2 -d 3 -p tcp -e 1040 -c 0 -i 3 -a 0 -x {0.0 3.0 2 ------- null}
+ -t 0.2252 -s 3 -d 2 -p ack -e 40 -c 0 -i 4 -a 0 -x {3.0 0.0 2 ------- null}
- -t 0.2252 -s 3 -d 2 -p ack -e 40 -c 0 -i 4 -a 0 -x {3.0 0.0 2 ------- null}
h -t 0.2252 -s 3 -d 2 -p ack -e 40 -c 0 -i 4 -a 0 -x {3.0 0.0 -1 ------- null}
r -t 0.23552 -s 3 -d 2 -p ack -e 40 -c 0 -i 4 -a 0 -x {3.0 0.0 2 ------- null}
+ -t 0.23552 -s 2 -d 1 -p ack -e 40 -c 0 -i 4 -a 0 -x {3.0 0.0 2 ------- null}
- -t 0.23552 -s 2 -d 1 -p ack -e 40 -c 0 -i 4 -a 0 -x {3.0 0.0 2 ------- null}
h -t 0.23552 -s 2 -d 1 -p ack -e 40 -c 0 -i 4 -a 0 -x {3.0 0.0 -1 ------- null}
r -t 0.24584 -s 2 -d 1 -p ack -e 40 -c 0 -i 4 -a 0 -x {3.0 0.0 2 ------- null}
+ -t 0.24584 -s 1 -d 0 -p ack -e 40 -c 0 -i 4 -a 0 -x {3.0 0.0 2 ------- null}
- -t 0.24584 -s 1 -d 0 -p ack -e 40 -c 0 -i 4 -a 0 -x {3.0 0.0 2 ------- null}
h -t 0.24584 -s 1 -d 0 -p ack -e 40 -c 0 -i 4 -a 0 -x {3.0 0.0 -1 ------- null}
r -t 0.25616 -s 1 -d 0 -p ack -e 40 -c 0 -i 4 -a 0 -x {3.0 0.0 2 ------- null}
+ -t 0.25616 -s 0 -d 1 -p tcp -e 1040 -c 0 -i 5 -a 0 -x {0.0 3.0 3 ------- null}
- -t 0.25616 -s 0 -d 1 -p tcp -e 1040 -c 0 -i 5 -a 0 -x {0.0 3.0 3 ------- null}
h -t 0.25616 -s 0 -d 1 -p tcp -e 1040 -c 0 -i 5 -a 0 -x {0.0 3.0 -1 ------- null}
+ -t 0.25616 -s 0 -d 1 -p tcp -e 1040 -c 0 -i 6 -a 0 -x {0.0 3.0 4 ------- null}
+ -t 0.25616 -s 0 -d 1 -p tcp -e 1040 -c 0 -i 7 -a 0 -x {0.0 3.0 5 ------- null}
- -t 0.26448 -s 0 -d 1 -p tcp -e 1040 -c 0 -i 6 -a 0 -x {0.0 3.0 4 ------- null}
h -t 0.26448 -s 0 -d 1 -p tcp -e 1040 -c 0 -i 6 -a 0 -x {0.0 3.0 -1 ------- null}
- -t 0.2728 -s 0 -d 1 -p tcp -e 1040 -c 0 -i 7 -a 0 -x {0.0 3.0 5 ------- null}
h -t 0.2728 -s 0 -d 1 -p tcp -e 1040 -c 0 -i 7 -a 0 -x {0.0 3.0 -1 ------- null}
r -t 0.27448 -s 0 -d 1 -p tcp -e 1040 -c 0 -i 5 -a 0 -x {0.0 3.0 3 ------- null}
+ -t 0.27448 -s 1 -d 2 -p tcp -e 1040 -c 0 -i 5 -a 0 -x {0.0 3.0 3 ------- null}
- -t 0.27448 -s 1 -d 2 -p tcp -e 1040 -c 0 -i 5 -a 0 -x {0.0 3.0 3 ------- null}
h -t 0.27448 -s 1 -d 2 -p tcp -e 1040 -c 0 -i 5 -a 0 -x {0.0 3.0 -1 ------- null}
r -t 0.2828 -s 0 -d 1 -p tcp -e 1040 -c 0 -i 6 -a 0 -x {0.0 3.0 4 ------- null}
+ -t 0.2828 -s 1 -d 2 -p tcp -e 1040 -c 0 -i 6 -a 0 -x {0.0 3.0 4 ------- null}
- -t 0.2828 -s 1 -d 2 -p tcp -e 1040 -c 0 -i 6 -a 0 -x {0.0 3.0 4 ------- null}
h -t 0.2828 -s 1 -d 2 -p tcp -e 1040 -c 0 -i 6 -a 0 -x {0.0 3.0 -1 ------- null}
r -t 0.29112 -s 0 -d 1 -p tcp -e 1040 -c 0 -i 7 -a 0 -x {0.0 3.0 5 ------- null}
+ -t 0.29112 -s 1 -d 2 -p tcp -e 1040 -c 0 -i 7 -a 0 -x {0.0 3.0 5 ------- null}
- -t 0.29112 -s 1 -d 2 -p tcp -e 1040 -c 0 -i 7 -a 0 -x {0.0 3.0 5 ------- null}
h -t 0.29112 -s 1 -d 2 -p tcp -e 1040 -c 0 -i 7 -a 0 -x {0.0 3.0 -1 ------- null}
r -t 0.2928 -s 1 -d 2 -p tcp -e 1040 -c 0 -i 5 -a 0 -x {0.0 3.0 3 ------- null}
+ -t 0.2928 -s 2 -d 3 -p tcp -e 1040 -c 0 -i 5 -a 0 -x {0.0 3.0 3 ------- null}
- -t 0.2928 -s 2 -d 3 -p tcp -e 1040 -c 0 -i 5 -a 0 -x {0.0 3.0 3 ------- null}
h -t 0.2928 -s 2 -d 3 -p tcp -e 1040 -c 0 -i 5 -a 0 -x {0.0 3.0 -1 ------- null}
r -t 0.30112 -s 1 -d 2 -p tcp -e 1040 -c 0 -i 6 -a 0 -x {0.0 3.0 4 ------- null}
+ -t 0.30112 -s 2 -d 3 -p tcp -e 1040 -c 0 -i 6 -a 0 -x {0.0 3.0 4 ------- null}
- -t 0.30112 -s 2 -d 3 -p tcp -e 1040 -c 0 -i 6 -a 0 -x {0.0 3.0 4 ------- null}
h -t 0.30112 -s 2 -d 3 -p tcp -e 1040 -c 0 -i 6 -a 0 -x {0.0 3.0 -1 ------- null}
r -t 0.30944 -s 1 -d 2 -p tcp -e 1040 -c 0 -i 7 -a 0 -x {0.0 3.0 5 ------- null}
+ -t 0.30944 -s 2 -d 3 -p tcp -e 1040 -c 0 -i 7 -a 0 -x {0.0 3.0 5 ------- null}
- -t 0.30944 -s 2 -d 3 -p tcp -e 1040 -c 0 -i 7 -a 0 -x {0.0 3.0 5 ------- null}
h -t 0.30944 -s 2 -d 3 -p tcp -e 1040 -c 0 -i 7 -a 0 -x {0.0 3.0 -1 ------- null}
r -t 0.31112 -s 2 -d 3 -p tcp -e 1040 -c 0 -i 5 -a 0 -x {0.0 3.0 3 ------- null}
r -t 0.31944 -s 2 -d 3 -p tcp -e 1040 -c 0 -i 6 -a 0 -x {0.0 3.0 4 ------- null}
+ -t 0.31944 -s 3 -d 2 -p ack -e 40 -c 0 -i 8 -a 0 -x {3.0 0.0 4 ------- null}
- -t 0.31944 -s 3 -d 2 -p ack -e 40 -c 0 -i 8 -a 0 -x {3.0 0.0 4 ------- null}
h -t 0.31944 -s 3 -d 2 -p ack -e 40 -c 0 -i 8 -a 0 -x {3.0 0.0 -1 ------- null}
r -t 0.32776 -s 2 -d 3 -p tcp -e 1040 -c 0 -i 7 -a 0 -x {0.0 3.0 5 ------- null}
r -t 0.32976 -s 3 -d 2 -p ack -e 40 -c 0 -i 8 -a 0 -x {3.0 0.0 4 ------- null}
+ -t 0.32976 -s 2 -d 1 -p ack -e 40 -c 0 -i 8 -a 0 -x {3.0 0.0 4 ------- null}
- -t 0.32976 -s 2 -d 1 -p ack -e 40 -c 0 -i 8 -a 0 -x {3.0 0.0 4 ------- null}
h -t 0.32976 -s 2 -d 1 -p ack -e 40 -c 0 -i 8 -a 0 -x {3.0 0.0 -1 ------- null}
r -t 0.34008 -s 2 -d 1 -p ack -e 40 -c 0 -i 8 -a 0 -x {3.0 0.0 4 ------- null}
+ -t 0.34008 -s 1 -d 0 -p ack -e 40 -c 0 -i 8 -a 0 -x {3.0 0.0 4 ------- null}
- -t 0.34008 -s 1 -d 0 -p ack -e 40 -c 0 -i 8 -a 0 -x {3.0 0.0 4 ------- null}
h -t 0.34008 -s 1 -d 0 -p ack -e 40 -c 0 -i 8 -a 0 -x {3.0 0.0 -1 ------- null}
r -t 0.3504 -s 1 -d 0 -p ack -e 40 -c 0 -i 8 -a 0 -x {3.0 0.0 4 ------- null}
+ -t 0.3504 -s 0 -d 1 -p tcp -e 1040 -c 0 -i 9 -a 0 -x {0.0 3.0 6 ------- null}
- -t 0.3504 -s 0 -d 1 -p tcp -e 1040 -c 0 -i 9 -a 0 -x {0.0 3.0 6 ------- null}
h -t 0.3504 -s 0 -d 1 -p tcp -e 1040 -c 0 -i 9 -a 0 -x {0.0 3.0 -1 ------- null}
+ -t 0.3504 -s 0 -d 1 -p tcp -e 1040 -c 0 -i 10 -a 0 -x {0.0 3.0 7 ------- null}
+ -t 0.3504 -s 0 -d 1 -p tcp -e 1040 -c 0 -i 11 -a 0 -x {0.0 3.0 8 ------- null}
- -t 0.35872 -s 0 -d 1 -p tcp -e 1040 -c 0 -i 10 -a 0 -x {0.0 3.0 7 ------- null}
h -t 0.35872 -s 0 -d 1 -p tcp -e 1040 -c 0 -i 10 -a 0 -x {0.0 3.0 -1 ------- null}
- -t 0.36704 -s 0 -d 1 -p tcp -e 1040 -c 0 -i 11 -a 0 -x {0.0 3.0 8 ------- null}
h -t 0.36704 -s 0 -d 1 -p tcp -e 1040 -c 0 -i 11 -a 0 -x {0.0 3.0 -1 ------- null}
r -t 0.36872 -s 0 -d 1 -p tcp -e 1040 -c 0 -i 9 -a 0 -x {0.0 3.0 6 ------- null}
+ -t 0.36872 -s 1 -d 2 -p tcp -e 1040 -c 0 -i 9 -a 0 -x {0.0 3.0 6 ------- null}
- -t 0.36872 -s 1 -d 2 -p tcp -e 1040 -c 0 -i 9 -a 0 -x {0.0 3.0 6 ------- null}
h -t 0.36872 -s 1 -d 2 -p tcp -e 1040 -c 0 -i 9 -a 0 -x {0.0 3.0 -1 ------- null}
r -t 0.37704 -s 0 -d 1 -p tcp -e 1040 -c 0 -i 10 -a 0 -x {0.0 3.0 7 ------- null}
+ -t 0.37704 -s 1 -d 2 -p tcp -e 1040 -c 0 -i 10 -a 0 -x {0.0 3.0 7 ------- null}
- -t 0.37704 -s 1 -d 2 -p tcp -e 1040 -c 0 -i 10 -a 0 -x {0.0 3.0 7 ------- null}
h -t 0.37704 -s 1 -d 2 -p tcp -e 1040 -c 0 -i 10 -a 0 -x {0.0 3.0 -1 ------- null}
r -t 0.38536 -s 0 -d 1 -p tcp -e 1040 -c 0 -i 11 -a 0 -x {0.0 3.0 8 ------- null}
+ -t 0.38536 -s 1 -d 2 -p tcp -e 1040 -c 0 -i 11 -a 0 -x {0.0 3.0 8 ------- null}
- -t 0.38536 -s 1 -d 2 -p tcp -e 1040 -c 0 -i 11 -a 0 -x {0.0 3.0 8 ------- null}
h -t 0.38536 -s 1 -d 2 -p tcp -e 1040 -c 0 -i 11 -a 0 -x {0.0 3.0 -1 ------- null}
r -t 0.38704 -s 1 -d 2 -p tcp -e 1040 -c 0 -i 9 -a 0 -x {0.0 3.0 6 ------- null}
+ -t 0.38704 -s 2 -d 3 -p tcp -e 1040 -c 0 -i 9 -a 0 -x {0.0 3.0 6 ------- null}
- -t 0.38704 -s 2 -d 3 -p tcp -e 1040 -c 0 -i 9 -a 0 -x {0.0 3.0 6 ------- null}
h -t 0.38704 -s 2 -d 3 -p tcp -e 1040 -c 0 -i 9 -a 0 -x {0.0 3.0 -1 ------- null}
r -t 0.39536 -s 1 -d 2 -p tcp -e 1040 -c 0 -i 10 -a 0 -x {0.0 3.0 7 ------- null}
+ -t 0.39536 -s 2 -d 3 -p tcp -e 1040 -c 0 -i 10 -a 0 -x {0.0 3.0 7 ------- null}
- -t 0.39536 -s 2 -d 3 -p tcp -e 1040 -c 0 -i 10 -a 0 -x {0.0 3.0 7 ------- null}
h -t 0.39536 -s 2 -d 3 -p tcp -e 1040 -c 0 -i 10 -a 0 -x {0.0 3.0 -1 ------- null}
r -t 0.40368 -s 1 -d 2 -p tcp -e 1040 -c 0 -i 11 -a 0 -x {0.0 3.0 8 ------- null}
+ -t 0.40368 -s 2 -d 3 -p tcp -e 1040 -c 0 -i 11 -a 0 -x {0.0 3.0 8 ------- null}
- -t 0.40368 -s 2 -d 3 -p tcp -e 1040 -c 0 -i 11 -a 0 -x {0.0 3.0 8 ------- null}
h -t 0.40368 -s 2 -d 3 -p tcp -e 1040 -c 0 -i 11 -a 0 -x {0.0 3.0 -1 ------- null}
r -t 0.40536 -s 2 -d 3 -p tcp -e 1040 -c 0 -i 9 -a 0 -x {0.0 3.0 6 ------- null}
+ -t 0.40536 -s 3 -d 2 -p ack -e 40 -c 0 -i 12 -a 0 -x {3.0 0.0 6 ------- null}
- -t 0.40536 -s 3 -d 2 -p ack -e 40 -c 0 -i 12 -a 0 -x {3.0 0.0 6 ------- null}
h -t 0.40536 -s 3 -d 2 -p ack -e 40 -c 0 -i 12 -a 0 -x {3.0 0.0 -1 ------- null}
r -t 0.41368 -s 2 -d 3 -p tcp -e 1040 -c 0 -i 10 -a 0 -x {0.0 3.0 7 ------- null}
r -t 0.41568 -s 3 -d 2 -p ack -e 40 -c 0 -i 12 -a 0 -x {3.0 0.0 6 ------- null}
+ -t 0.41568 -s 2 -d 1 -p ack -e 40 -c 0 -i 12 -a 0 -x {3.0 0.0 6 ------- null}
- -t 0.41568 -s 2 -d 1 -p ack -e 40 -c 0 -i 12 -a 0 -x {3.0 0.0 6 ------- null}
h -t 0.41568 -s 2 -d 1 -p ack -e 40 -c 0 -i 12 -a 0 -x {3.0 0.0 -1 ------- null}
r -t 0.422 -s 2 -d 3 -p tcp -e 1040 -c 0 -i 11 -a 0 -x {0.0 3.0 8 ------- null}
+ -t 0.422 -s 3 -d 2 -p ack -e 40 -c 0 -i 13 -a 0 -x {3.0 0.0 8 ------- null}
- -t 0.422 -s 3 -d 2 -p ack -e 40 -c 0 -i 13 -a 0 -x {3.0 0.0 8 ------- null}
h -t 0.422 -s 3 -d 2 -p ack -e 40 -c 0 -i 13 -a 0 -x {3.0 0.0 -1 ------- null}
r -t 0.426 -s 2 -d 1 -p ack -e 40 -c 0 -i 12 -a 0 -x {3.0 0.0 6 ------- null}
+ -t 0.426 -s 1 -d 0 -p ack -e 40 -c 0 -i 12 -a 0 -x {3.0 0.0 6 ------- null}
- -t 0.426 -s 1 -d 0 -p ack -e 40 -c 0 -i 12 -a 0 -x {3.0 0.0 6 ------- null}
h -t 0.426 -s 1 -d 0 -p ack -e 40 -c 0 -i 12 -a 0 -x {3.0 0.0 -1 ------- null}
r -t 0.43232 -s 3 -d 2 -p ack -e 40 -c 0 -i 13 -a 0 -x {3.0 0.0 8 ------- null}
+ -t 0.43232 -s 2 -d 1 -p ack -e 40 -c 0 -i 13 -a 0 -x {3.0 0.0 8 ------- null}
- -t 0.43232 -s 2 -d 1 -p ack -e 40 -c 0 -i 13 -a 0 -x {3.0 0.0 8 ------- null}
h -t 0.43232 -s 2 -d 1 -p ack -e 40 -c 0 -i 13 -a 0 -x {3.0 0.0 -1 ------- null}
r -t 0.43632 -s 1 -d 0 -p ack -e 40 -c 0 -i 12 -a 0 -x {3.0 0.0 6 ------- null}
+ -t 0.43632 -s 0 -d 1 -p tcp -e 1040 -c 0 -i 14 -a 0 -x {0.0 3.0 9 ------- null}
- -t 0.43632 -s 0 -d 1 -p tcp -e 1040 -c 0 -i 14 -a 0 -x {0.0 3.0 9 ------- null}
h -t 0.43632 -s 0 -d 1 -p tcp -e 1040 -c 0 -i 14 -a 0 -x {0.0 3.0 -1 ------- null}
+ -t 0.43632 -s 0 -d 1 -p tcp -e 1040 -c 0 -i 15 -a 0 -x {0.0 3.0 10 ------- null}
+ -t 0.43632 -s 0 -d 1 -p tcp -e 1040 -c 0 -i 16 -a 0 -x {0.0 3.0 11 ------- null}
r -t 0.44264 -s 2 -d 1 -p ack -e 40 -c 0 -i 13 -a 0 -x {3.0 0.0 8 ------- null}
+ -t 0.44264 -s 1 -d 0 -p ack -e 40 -c 0 -i 13 -a 0 -x {3.0 0.0 8 ------- null}
- -t 0.44264 -s 1 -d 0 -p ack -e 40 -c 0 -i 13 -a 0 -x {3.0 0.0 8 ------- null}
h -t 0.44264 -s 1 -d 0 -p ack -e 40 -c 0 -i 13 -a 0 -x {3.0 0.0 -1 ------- null}
- -t 0.44464 -s 0 -d 1 -p tcp -e 1040 -c 0 -i 15 -a 0 -x {0.0 3.0 10 ------- null}
h -t 0.44464 -s 0 -d 1 -p tcp -e 1040 -c 0 -i 15 -a 0 -x {0.0 3.0 -1 ------- null}
r -t 0.45296 -s 1 -d 0 -p ack -e 40 -c 0 -i 13 -a 0 -x {3.0 0.0 8 ------- null}
+ -t 0.45296 -s 0 -d 1 -p tcp -e 1040 -c 0 -i 17 -a 0 -x {0.0 3.0 12 ------- null}
+ -t 0.45296 -s 0 -d 1 -p tcp -e 1040 -c 0 -i 18 -a 0 -x {0.0 3.0 13 ------- null}
+ -t 0.45296 -s 0 -d 1 -p tcp -e 1040 -c 0 -i 19 -a 0 -x {0.0 3.0 14 ------- null}
- -t 0.45296 -s 0 -d 1 -p tcp -e 1040 -c 0 -i 16 -a 0 -x {0.0 3.0 11 ------- null}
h -t 0.45296 -s 0 -d 1 -p tcp -e 1040 -c 0 -i 16 -a 0 -x {0.0 3.0 -1 ------- null}
r -t 0.45464 -s 0 -d 1 -p tcp -e 1040 -c 0 -i 14 -a 0 -x {0.0 3.0 9 ------- null}
+ -t 0.45464 -s 1 -d 2 -p tcp -e 1040 -c 0 -i 14 -a 0 -x {0.0 3.0 9 ------- null}
- -t 0.45464 -s 1 -d 2 -p tcp -e 1040 -c 0 -i 14 -a 0 -x {0.0 3.0 9 ------- null}
h -t 0.45464 -s 1 -d 2 -p tcp -e 1040 -c 0 -i 14 -a 0 -x {0.0 3.0 -1 ------- null}
- -t 0.46128 -s 0 -d 1 -p tcp -e 1040 -c 0 -i 17 -a 0 -x {0.0 3.0 12 ------- null}
h -t 0.46128 -s 0 -d 1 -p tcp -e 1040 -c 0 -i 17 -a 0 -x {0.0 3.0 -1 ------- null}
r -t 0.46296 -s 0 -d 1 -p tcp -e 1040 -c 0 -i 15 -a 0 -x {0.0 3.0 10 ------- null}
+ -t 0.46296 -s 1 -d 2 -p tcp -e 1040 -c 0 -i 15 -a 0 -x {0.0 3.0 10 ------- null}
- -t 0.46296 -s 1 -d 2 -p tcp -e 1040 -c 0 -i 15 -a 0 -x {0.0 3.0 10 ------- null}
h -t 0.46296 -s 1 -d 2 -p tcp -e 1040 -c 0 -i 15 -a 0 -x {0.0 3.0 -1 ------- null}
- -t 0.4696 -s 0 -d 1 -p tcp -e 1040 -c 0 -i 18 -a 0 -x {0.0 3.0 13 ------- null}
h -t 0.4696 -s 0 -d 1 -p tcp -e 1040 -c 0 -i 18 -a 0 -x {0.0 3.0 -1 ------- null}
r -t 0.47128 -s 0 -d 1 -p tcp -e 1040 -c 0 -i 16 -a 0 -x {0.0 3.0 11 ------- null}
+ -t 0.47128 -s 1 -d 2 -p tcp -e 1040 -c 0 -i 16 -a 0 -x {0.0 3.0 11 ------- null}
- -t 0.47128 -s 1 -d 2 -p tcp -e 1040 -c 0 -i 16 -a 0 -x {0.0 3.0 11 ------- null}
h -t 0.47128 -s 1 -d 2 -p tcp -e 1040 -c 0 -i 16 -a 0 -x {0.0 3.0 -1 ------- null}
r -t 0.47296 -s 1 -d 2 -p tcp -e 1040 -c 0 -i 14 -a 0 -x {0.0 3.0 9 ------- null}
+ -t 0.47296 -s 2 -d 3 -p tcp -e 1040 -c 0 -i 14 -a 0 -x {0.0 3.0 9 ------- null}
- -t 0.47296 -s 2 -d 3 -p tcp -e 1040 -c 0 -i 14 -a 0 -x {0.0 3.0 9 ------- null}
h -t 0.47296 -s 2 -d 3 -p tcp -e 1040 -c 0 -i 14 -a 0 -x {0.0 3.0 -1 ------- null}
- -t 0.47792 -s 0 -d 1 -p tcp -e 1040 -c 0 -i 19 -a 0 -x {0.0 3.0 14 ------- null}
h -t 0.47792 -s 0 -d 1 -p tcp -e 1040 -c 0 -i 19 -a 0 -x {0.0 3.0 -1 ------- null}
r -t 0.4796 -s 0 -d 1 -p tcp -e 1040 -c 0 -i 17 -a 0 -x {0.0 3.0 12 ------- null}
+ -t 0.4796 -s 1 -d 2 -p tcp -e 1040 -c 0 -i 17 -a 0 -x {0.0 3.0 12 ------- null}
- -t 0.4796 -s 1 -d 2 -p tcp -e 1040 -c 0 -i 17 -a 0 -x {0.0 3.0 12 ------- null}
h -t 0.4796 -s 1 -d 2 -p tcp -e 1040 -c 0 -i 17 -a 0 -x {0.0 3.0 -1 ------- null}
r -t 0.48128 -s 1 -d 2 -p tcp -e 1040 -c 0 -i 15 -a 0 -x {0.0 3.0 10 ------- null}
+ -t 0.48128 -s 2 -d 3 -p tcp -e 1040 -c 0 -i 15 -a 0 -x {0.0 3.0 10 ------- null}
- -t 0.48128 -s 2 -d 3 -p tcp -e 1040 -c 0 -i 15 -a 0 -x {0.0 3.0 10 ------- null}
h -t 0.48128 -s 2 -d 3 -p tcp -e 1040 -c 0 -i 15 -a 0 -x {0.0 3.0 -1 ------- null}
r -t 0.48792 -s 0 -d 1 -p tcp -e 1040 -c 0 -i 18 -a 0 -x {0.0 3.0 13 ------- null}
+ -t 0.48792 -s 1 -d 2 -p tcp -e 1040 -c 0 -i 18 -a 0 -x {0.0 3.0 13 ------- null}
- -t 0.48792 -s 1 -d 2 -p tcp -e 1040 -c 0 -i 18 -a 0 -x {0.0 3.0 13 ------- null}
h -t 0.48792 -s 1 -d 2 -p tcp -e 1040 -c 0 -i 18 -a 0 -x {0.0 3.0 -1 ------- null}
r -t 0.4896 -s 1 -d 2 -p tcp -e 1040 -c 0 -i 16 -a 0 -x {0.0 3.0 11 ------- null}
+ -t 0.4896 -s 2 -d 3 -p tcp -e 1040 -c 0 -i 16 -a 0 -x {0.0 3.0 11 ------- null}
- -t 0.4896 -s 2 -d 3 -p tcp -e 1040 -c 0 -i 16 -a 0 -x {0.0 3.0 11 ------- null}
h -t 0.4896 -s 2 -d 3 -p tcp -e 1040 -c 0 -i 16 -a 0 -x {0.0 3.0 -1 ------- null}
r -t 0.49128 -s 2 -d 3 -p tcp -e 1040 -c 0 -i 14 -a 0 -x {0.0 3.0 9 ------- null}
r -t 0.49624 -s 0 -d 1 -p tcp -e 1040 -c 0 -i 19 -a 0 -x {0.0 3.0 14 ------- null}
+ -t 0.49624 -s 1 -d 2 -p tcp -e 1040 -c 0 -i 19 -a 0 -x {0.0 3.0 14 ------- null}
- -t 0.49624 -s 1 -d 2 -p tcp -e 1040 -c 0 -i 19 -a 0 -x {0.0 3.0 14 ------- null}
h -t 0.49624 -s 1 -d 2 -p tcp -e 1040 -c 0 -i 19 -a 0 -x {0.0 3.0 -1 ------- null}
r -t 0.49792 -s 1 -d 2 -p tcp -e 1040 -c 0 -i 17 -a 0 -x {0.0 3.0 12 ------- null}
+ -t 0.49792 -s 2 -d 3 -p tcp -e 1040 -c 0 -i 17 -a 0 -x {0.0 3.0 12 ------- null}
- -t 0.49792 -s 2 -d 3 -p tcp -e 1040 -c 0 -i 17 -a 0 -x {0.0 3.0 12 ------- null}
h -t 0.49792 -s 2 -d 3 -p tcp -e 1040 -c 0 -i 17 -a 0 -x {0.0 3.0 -1 ------- null}
r -t 0.4996 -s 2 -d 3 -p tcp -e 1040 -c 0 -i 15 -a 0 -x {0.0 3.0 10 ------- null}
+ -t 0.4996 -s 3 -d 2 -p ack -e 40 -c 0 -i 20 -a 0 -x {3.0 0.0 10 ------- null}
- -t 0.4996 -s 3 -d 2 -p ack -e 40 -c 0 -i 20 -a 0 -x {3.0 0.0 10 ------- null}
h -t 0.4996 -s 3 -d 2 -p ack -e 40 -c 0 -i 20 -a 0 -x {3.0 0.0 -1 ------- null}
r -t 0.50624 -s 1 -d 2 -p tcp -e 1040 -c 0 -i 18 -a 0 -x {0.0 3.0 13 ------- null}
+ -t 0.50624 -s 2 -d 3 -p tcp -e 1040 -c 0 -i 18 -a 0 -x {0.0 3.0 13 ------- null}
- -t 0.50624 -s 2 -d 3 -p tcp -e 1040 -c 0 -i 18 -a 0 -x {0.0 3.0 13 ------- null}
h -t 0.50624 -s 2 -d 3 -p tcp -e 1040 -c 0 -i 18 -a 0 -x {0.0 3.0 -1 ------- null}
r -t 0.50792 -s 2 -d 3 -p tcp -e 1040 -c 0 -i 16 -a 0 -x {0.0 3.0 11 ------- null}
r -t 0.50992 -s 3 -d 2 -p ack -e 40 -c 0 -i 20 -a 0 -x {3.0 0.0 10 ------- null}
+ -t 0.50992 -s 2 -d 1 -p ack -e 40 -c 0 -i 20 -a 0 -x {3.0 0.0 10 ------- null}
- -t 0.50992 -s 2 -d 1 -p ack -e 40 -c 0 -i 20 -a 0 -x {3.0 0.0 10 ------- null}
h -t 0.50992 -s 2 -d 1 -p ack -e 40 -c 0 -i 20 -a 0 -x {3.0 0.0 -1 ------- null}
r -t 0.51456 -s 1 -d 2 -p tcp -e 1040 -c 0 -i 19 -a 0 -x {0.0 3.0 14 ------- null}
+ -t 0.51456 -s 2 -d 3 -p tcp -e 1040 -c 0 -i 19 -a 0 -x {0.0 3.0 14 ------- null}
- -t 0.51456 -s 2 -d 3 -p tcp -e 1040 -c 0 -i 19 -a 0 -x {0.0 3.0 14 ------- null}
h -t 0.51456 -s 2 -d 3 -p tcp -e 1040 -c 0 -i 19 -a 0 -x {0.0 3.0 -1 ------- null}
r -t 0.51624 -s 2 -d 3 -p tcp -e 1040 -c 0 -i 17 -a 0 -x {0.0 3.0 12 ------- null}
+ -t 0.51624 -s 3 -d 2 -p ack -e 40 -c 0 -i 21 -a 0 -x {3.0 0.0 12 ------- null}
- -t 0.51624 -s 3 -d 2 -p ack -e 40 -c 0 -i 21 -a 0 -x {3.0 0.0 12 ------- null}
h -t 0.51624 -s 3 -d 2 -p ack -e 40 -c 0 -i 21 -a 0 -x {3.0 0.0 -1 ------- null}
r -t 0.52024 -s 2 -d 1 -p ack -e 40 -c 0 -i 20 -a 0 -x {3.0 0.0 10 ------- null}
+ -t 0.52024 -s 1 -d 0 -p ack -e 40 -c 0 -i 20 -a 0 -x {3.0 0.0 10 ------- null}
- -t 0.52024 -s 1 -d 0 -p ack -e 40 -c 0 -i 20 -a 0 -x {3.0 0.0 10 ------- null}
h -t 0.52024 -s 1 -d 0 -p ack -e 40 -c 0 -i 20 -a 0 -x {3.0 0.0 -1 ------- null}
r -t 0.52456 -s 2 -d 3 -p tcp -e 1040 -c 0 -i 18 -a 0 -x {0.0 3.0 13 ------- null}
r -t 0.52656 -s 3 -d 2 -p ack -e 40 -c 0 -i 21 -a 0 -x {3.0 0.0 12 ------- null}
+ -t 0.52656 -s 2 -d 1 -p ack -e 40 -c 0 -i 21 -a 0 -x {3.0 0.0 12 ------- null}
- -t 0.52656 -s 2 -d 1 -p ack -e 40 -c 0 -i 21 -a 0 -x {3.0 0.0 12 ------- null}
h -t 0.52656 -s 2 -d 1 -p ack -e 40 -c 0 -i 21 -a 0 -x {3.0 0.0 -1 ------- null}
r -t 0.53056 -s 1 -d 0 -p ack -e 40 -c 0 -i 20 -a 0 -x {3.0 0.0 10 ------- null}
+ -t 0.53056 -s 0 -d 1 -p tcp -e 1040 -c 0 -i 22 -a 0 -x {0.0 3.0 15 ------- null}
- -t 0.53056 -s 0 -d 1 -p tcp -e 1040 -c 0 -i 22 -a 0 -x {0.0 3.0 15 ------- null}
h -t 0.53056 -s 0 -d 1 -p tcp -e 1040 -c 0 -i 22 -a 0 -x {0.0 3.0 -1 ------- null}
+ -t 0.53056 -s 0 -d 1 -p tcp -e 1040 -c 0 -i 23 -a 0 -x {0.0 3.0 16 ------- null}
+ -t 0.53056 -s 0 -d 1 -p tcp -e 1040 -c 0 -i 24 -a 0 -x {0.0 3.0 17 ------- null}
r -t 0.53288 -s 2 -d 3 -p tcp -e 1040 -c 0 -i 19 -a 0 -x {0.0 3.0 14 ------- null}
+ -t 0.53288 -s 3 -d 2 -p ack -e 40 -c 0 -i 25 -a 0 -x {3.0 0.0 14 ------- null}
- -t 0.53288 -s 3 -d 2 -p ack -e 40 -c 0 -i 25 -a 0 -x {3.0 0.0 14 ------- null}
h -t 0.53288 -s 3 -d 2 -p ack -e 40 -c 0 -i 25 -a 0 -x {3.0 0.0 -1 ------- null}
r -t 0.53688 -s 2 -d 1 -p ack -e 40 -c 0 -i 21 -a 0 -x {3.0 0.0 12 ------- null}
+ -t 0.53688 -s 1 -d 0 -p ack -e 40 -c 0 -i 21 -a 0 -x {3.0 0.0 12 ------- null}
- -t 0.53688 -s 1 -d 0 -p ack -e 40 -c 0 -i 21 -a 0 -x {3.0 0.0 12 ------- null}
h -t 0.53688 -s 1 -d 0 -p ack -e 40 -c 0 -i 21 -a 0 -x {3.0 0.0 -1 ------- null}
- -t 0.53888 -s 0 -d 1 -p tcp -e 1040 -c 0 -i 23 -a 0 -x {0.0 3.0 16 ------- null}
h -t 0.53888 -s 0 -d 1 -p tcp -e 1040 -c 0 -i 23 -a 0 -x {0.0 3.0 -1 ------- null}
r -t 0.5432 -s 3 -d 2 -p ack -e 40 -c 0 -i 25 -a 0 -x {3.0 0.0 14 ------- null}
+ -t 0.5432 -s 2 -d 1 -p ack -e 40 -c 0 -i 25 -a 0 -x {3.0 0.0 14 ------- null}
- -t 0.5432 -s 2 -d 1 -p ack -e 40 -c 0 -i 25 -a 0 -x {3.0 0.0 14 ------- null}
h -t 0.5432 -s 2 -d 1 -p ack -e 40 -c 0 -i 25 -a 0 -x {3.0 0.0 -1 ------- null}
r -t 0.5472 -s 1 -d 0 -p ack -e 40 -c 0 -i 21 -a 0 -x {3.0 0.0 12 ------- null}
+ -t 0.5472 -s 0 -d 1 -p tcp -e 1040 -c 0 -i 26 -a 0 -x {0.0 3.0 18 ------- null}
+ -t 0.5472 -s 0 -d 1 -p tcp -e 1040 -c 0 -i 27 -a 0 -x {0.0 3.0 19 ------- null}
+ -t 0.5472 -s 0 -d 1 -p tcp -e 1040 -c 0 -i 28 -a 0 -x {0.0 3.0 20 ------- null}
- -t 0.5472 -s 0 -d 1 -p tcp -e 1040 -c 0 -i 24 -a 0 -x {0.0 3.0 17 ------- null}
h -t 0.5472 -s 0 -d 1 -p tcp -e 1040 -c 0 -i 24 -a 0 -x {0.0 3.0 -1 ------- null}
r -t 0.54888 -s 0 -d 1 -p tcp -e 1040 -c 0 -i 22 -a 0 -x {0.0 3.0 15 ------- null}
+ -t 0.54888 -s 1 -d 2 -p tcp -e 1040 -c 0 -i 22 -a 0 -x {0.0 3.0 15 ------- null}
- -t 0.54888 -s 1 -d 2 -p tcp -e 1040 -c 0 -i 22 -a 0 -x {0.0 3.0 15 ------- null}
h -t 0.54888 -s 1 -d 2 -p tcp -e 1040 -c 0 -i 22 -a 0 -x {0.0 3.0 -1 ------- null}
r -t 0.55352 -s 2 -d 1 -p ack -e 40 -c 0 -i 25 -a 0 -x {3.0 0.0 14 ------- null}
+ -t 0.55352 -s 1 -d 0 -p ack -e 40 -c 0 -i 25 -a 0 -x {3.0 0.0 14 ------- null}
- -t 0.55352 -s 1 -d 0 -p ack -e 40 -c 0 -i 25 -a 0 -x {3.0 0.0 14 ------- null}
h -t 0.55352 -s 1 -d 0 -p ack -e 40 -c 0 -i 25 -a 0 -x {3.0 0.0 -1 ------- null}
- -t 0.55552 -s 0 -d 1 -p tcp -e 1040 -c 0 -i 26 -a 0 -x {0.0 3.0 18 ------- null}
h -t 0.55552 -s 0 -d 1 -p tcp -e 1040 -c 0 -i 26 -a 0 -x {0.0 3.0 -1 ------- null}
r -t 0.5572 -s 0 -d 1 -p tcp -e 1040 -c 0 -i 23 -a 0 -x {0.0 3.0 16 ------- null}
+ -t 0.5572 -s 1 -d 2 -p tcp -e 1040 -c 0 -i 23 -a 0 -x {0.0 3.0 16 ------- null}
- -t 0.5572 -s 1 -d 2 -p tcp -e 1040 -c 0 -i 23 -a 0 -x {0.0 3.0 16 ------- null}
h -t 0.5572 -s 1 -d 2 -p tcp -e 1040 -c 0 -i 23 -a 0 -x {0.0 3.0 -1 ------- null}
r -t 0.56384 -s 1 -d 0 -p ack -e 40 -c 0 -i 25 -a 0 -x {3.0 0.0 14 ------- null}
+ -t 0.56384 -s 0 -d 1 -p tcp -e 1040 -c 0 -i 29 -a 0 -x {0.0 3.0 21 ------- null}
+ -t 0.56384 -s 0 -d 1 -p tcp -e 1040 -c 0 -i 30 -a 0 -x {0.0 3.0 22 ------- null}
+ -t 0.56384 -s 0 -d 1 -p tcp -e 1040 -c 0 -i 31 -a 0 -x {0.0 3.0 23 ------- null}
- -t 0.56384 -s 0 -d 1 -p tcp -e 1040 -c 0 -i 27 -a 0 -x {0.0 3.0 19 ------- null}
h -t 0.56384 -s 0 -d 1 -p tcp -e 1040 -c 0 -i 27 -a 0 -x {0.0 3.0 -1 ------- null}
r -t 0.56552 -s 0 -d 1 -p tcp -e 1040 -c 0 -i 24 -a 0 -x {0.0 3.0 17 ------- null}
+ -t 0.56552 -s 1 -d 2 -p tcp -e 1040 -c 0 -i 24 -a 0 -x {0.0 3.0 17 ------- null}
- -t 0.56552 -s 1 -d 2 -p tcp -e 1040 -c 0 -i 24 -a 0 -x {0.0 3.0 17 ------- null}
h -t 0.56552 -s 1 -d 2 -p tcp -e 1040 -c 0 -i 24 -a 0 -x {0.0 3.0 -1 ------- null}
r -t 0.5672 -s 1 -d 2 -p tcp -e 1040 -c 0 -i 22 -a 0 -x {0.0 3.0 15 ------- null}
+ -t 0.5672 -s 2 -d 3 -p tcp -e 1040 -c 0 -i 22 -a 0 -x {0.0 3.0 15 ------- null}
- -t 0.5672 -s 2 -d 3 -p tcp -e 1040 -c 0 -i 22 -a 0 -x {0.0 3.0 15 ------- null}
h -t 0.5672 -s 2 -d 3 -p tcp -e 1040 -c 0 -i 22 -a 0 -x {0.0 3.0 -1 ------- null}
- -t 0.57216 -s 0 -d 1 -p tcp -e 1040 -c 0 -i 28 -a 0 -x {0.0 3.0 20 ------- null}
h -t 0.57216 -s 0 -d 1 -p tcp -e 1040 -c 0 -i 28 -a 0 -x {0.0 3.0 -1 ------- null}
r -t 0.57384 -s 0 -d 1 -p tcp -e 1040 -c 0 -i 26 -a 0 -x {0.0 3.0 18 ------- null}
+ -t 0.57384 -s 1 -d 2 -p tcp -e 1040 -c 0 -i 26 -a 0 -x {0.0 3.0 18 ------- null}
- -t 0.57384 -s 1 -d 2 -p tcp -e 1040 -c 0 -i 26 -a 0 -x {0.0 3.0 18 ------- null}
h -t 0.57384 -s 1 -d 2 -p tcp -e 1040 -c 0 -i 26 -a 0 -x {0.0 3.0 -1 ------- null}
r -t 0.57552 -s 1 -d 2 -p tcp -e 1040 -c 0 -i 23 -a 0 -x {0.0 3.0 16 ------- null}
+ -t 0.57552 -s 2 -d 3 -p tcp -e 1040 -c 0 -i 23 -a 0 -x {0.0 3.0 16 ------- null}
- -t 0.57552 -s 2 -d 3 -p tcp -e 1040 -c 0 -i 23 -a 0 -x {0.0 3.0 16 ------- null}
h -t 0.57552 -s 2 -d 3 -p tcp -e 1040 -c 0 -i 23 -a 0 -x {0.0 3.0 -1 ------- null}
- -t 0.58048 -s 0 -d 1 -p tcp -e 1040 -c 0 -i 29 -a 0 -x {0.0 3.0 21 ------- null}
h -t 0.58048 -s 0 -d 1 -p tcp -e 1040 -c 0 -i 29 -a 0 -x {0.0 3.0 -1 ------- null}
r -t 0.58216 -s 0 -d 1 -p tcp -e 1040 -c 0 -i 27 -a 0 -x {0.0 3.0 19 ------- null}
+ -t 0.58216 -s 1 -d 2 -p tcp -e 1040 -c 0 -i 27 -a 0 -x {0.0 3.0 19 ------- null}
- -t 0.58216 -s 1 -d 2 -p tcp -e 1040 -c 0 -i 27 -a 0 -x {0.0 3.0 19 ------- null}
h -t 0.58216 -s 1 -d 2 -p tcp -e 1040 -c 0 -i 27 -a 0 -x {0.0 3.0 -1 ------- null}
r -t 0.58384 -s 1 -d 2 -p tcp -e 1040 -c 0 -i 24 -a 0 -x {0.0 3.0 17 ------- null}
+ -t 0.58384 -s 2 -d 3 -p tcp -e 1040 -c 0 -i 24 -a 0 -x {0.0 3.0 17 ------- null}
- -t 0.58384 -s 2 -d 3 -p tcp -e 1040 -c 0 -i 24 -a 0 -x {0.0 3.0 17 ------- null}
h -t 0.58384 -s 2 -d 3 -p tcp -e 1040 -c 0 -i 24 -a 0 -x {0.0 3.0 -1 ------- null}
r -t 0.58552 -s 2 -d 3 -p tcp -e 1040 -c 0 -i 22 -a 0 -x {0.0 3.0 15 ------- null}
- -t 0.5888 -s 0 -d 1 -p tcp -e 1040 -c 0 -i 30 -a 0 -x {0.0 3.0 22 ------- null}
h -t 0.5888 -s 0 -d 1 -p tcp -e 1040 -c 0 -i 30 -a 0 -x {0.0 3.0 -1 ------- null}
r -t 0.59048 -s 0 -d 1 -p tcp -e 1040 -c 0 -i 28 -a 0 -x {0.0 3.0 20 ------- null}
+ -t 0.59048 -s 1 -d 2 -p tcp -e 1040 -c 0 -i 28 -a 0 -x {0.0 3.0 20 ------- null}
- -t 0.59048 -s 1 -d 2 -p tcp -e 1040 -c 0 -i 28 -a 0 -x {0.0 3.0 20 ------- null}
h -t 0.59048 -s 1 -d 2 -p tcp -e 1040 -c 0 -i 28 -a 0 -x {0.0 3.0 -1 ------- null}
r -t 0.59216 -s 1 -d 2 -p tcp -e 1040 -c 0 -i 26 -a 0 -x {0.0 3.0 18 ------- null}
+ -t 0.59216 -s 2 -d 3 -p tcp -e 1040 -c 0 -i 26 -a 0 -x {0.0 3.0 18 ------- null}
- -t 0.59216 -s 2 -d 3 -p tcp -e 1040 -c 0 -i 26 -a 0 -x {0.0 3.0 18 ------- null}
h -t 0.59216 -s 2 -d 3 -p tcp -e 1040 -c 0 -i 26 -a 0 -x {0.0 3.0 -1 ------- null}
r -t 0.59384 -s 2 -d 3 -p tcp -e 1040 -c 0 -i 23 -a 0 -x {0.0 3.0 16 ------- null}
+ -t 0.59384 -s 3 -d 2 -p ack -e 40 -c 0 -i 32 -a 0 -x {3.0 0.0 16 ------- null}
- -t 0.59384 -s 3 -d 2 -p ack -e 40 -c 0 -i 32 -a 0 -x {3.0 0.0 16 ------- null}
h -t 0.59384 -s 3 -d 2 -p ack -e 40 -c 0 -i 32 -a 0 -x {3.0 0.0 -1 ------- null}
- -t 0.59712 -s 0 -d 1 -p tcp -e 1040 -c 0 -i 31 -a 0 -x {0.0 3.0 23 ------- null}
h -t 0.59712 -s 0 -d 1 -p tcp -e 1040 -c 0 -i 31 -a 0 -x {0.0 3.0 -1 ------- null}
r -t 0.5988 -s 0 -d 1 -p tcp -e 1040 -c 0 -i 29 -a 0 -x {0.0 3.0 21 ------- null}
+ -t 0.5988 -s 1 -d 2 -p tcp -e 1040 -c 0 -i 29 -a 0 -x {0.0 3.0 21 ------- null}
- -t 0.5988 -s 1 -d 2 -p tcp -e 1040 -c 0 -i 29 -a 0 -x {0.0 3.0 21 ------- null}
h -t 0.5988 -s 1 -d 2 -p tcp -e 1040 -c 0 -i 29 -a 0 -x {0.0 3.0 -1 ------- null}
r -t 0.60048 -s 1 -d 2 -p tcp -e 1040 -c 0 -i 27 -a 0 -x {0.0 3.0 19 ------- null}
+ -t 0.60048 -s 2 -d 3 -p tcp -e 1040 -c 0 -i 27 -a 0 -x {0.0 3.0 19 ------- null}
- -t 0.60048 -s 2 -d 3 -p tcp -e 1040 -c 0 -i 27 -a 0 -x {0.0 3.0 19 ------- null}
h -t 0.60048 -s 2 -d 3 -p tcp -e 1040 -c 0 -i 27 -a 0 -x {0.0 3.0 -1 ------- null}
r -t 0.60216 -s 2 -d 3 -p tcp -e 1040 -c 0 -i 24 -a 0 -x {0.0 3.0 17 ------- null}
r -t 0.60416 -s 3 -d 2 -p ack -e 40 -c 0 -i 32 -a 0 -x {3.0 0.0 16 ------- null}
+ -t 0.60416 -s 2 -d 1 -p ack -e 40 -c 0 -i 32 -a 0 -x {3.0 0.0 16 ------- null}
- -t 0.60416 -s 2 -d 1 -p ack -e 40 -c 0 -i 32 -a 0 -x {3.0 0.0 16 ------- null}
h -t 0.60416 -s 2 -d 1 -p ack -e 40 -c 0 -i 32 -a 0 -x {3.0 0.0 -1 ------- null}
r -t 0.60712 -s 0 -d 1 -p tcp -e 1040 -c 0 -i 30 -a 0 -x {0.0 3.0 22 ------- null}