+ 0.1 0 1 tcp 40 ------- 0 0.0 3.0 0 0
- 0.1 0 1 tcp 40 ------- 0 0.0 3.0 0 0
r 0.11032 0 1 tcp 40 ------- 0 0.0 3.0 0 0
+ 0.11032 1 2 tcp 40 ------- 0 0.0 3.0 0 0
- 0.11032 1 2 tcp 40 ------- 0 0.0 3.0 0 0
r 0.12064 1 2 tcp 40 ------- 0 0.0 3.0 0 0
+ 0.12064 2 3 tcp 40 ------- 0 0.0 3.0 0 0
- 0.12064 2 3 tcp 40 ------- 0 0.0 3.0 0 0
r 0.13096 2 3 tcp 40 ------- 0 0.0 3.0 0 0
+ 0.13096 3 2 ack 40 ------- 0 3.0 0.0 0 1
- 0.13096 3 2 ack 40 ------- 0 3.0 0.0 0 1
r 0.14128 3 2 ack 40 ------- 0 3.0 0.0 0 1
+ 0.14128 2 1 ack 40 ------- 0 3.0 0.0 0 1
- 0.14128 2 1 ack 40 ------- 0 3.0 0.0 0 1
r 0.1516 2 1 ack 40 ------- 0 3.0 0.0 0 1
+ 0.1516 1 0 ack 40 ------- 0 3.0 0.0 0 1
- 0.1516 1 0 ack 40 ------- 0 3.0 0.0 0 1
r 0.16192 1 0 ack 40 ------- 0 3.0 0.0 0 1
+ 0.16192 0 1 tcp 1040 ------- 0 0.0 3.0 1 2
- 0.16192 0 1 tcp 1040 ------- 0 0.0 3.0 1 2
+ 0.16192 0 1 tcp 1040 ------- 0 0.0 3.0 2 3
- 0.17024 0 1 tcp 1040 ------- 0 0.0 3.0 2 3
r 0.18024 0 1 tcp 1040 ------- 0 0.0 3.0 1 2
+ 0.18024 1 2 tcp 1040 ------- 0 0.0 3.0 1 2
- 0.18024 1 2 tcp 1040 ------- 0 0.0 3.0 1 2
r 0.18856 0 1 tcp 1040 ------- 0 0.0 3.0 2 3
+ 0.18856 1 2 tcp 1040 ------- 0 0.0 3.0 2 3
- 0.18856 1 2 tcp 1040 ------- 0 0.0 3.0 2 3
r 0.19856 1 2 tcp 1040 ------- 0 0.0 3.0 1 2
+ 0.19856 2 3 tcp 1040 ------- 0 0.0 3.0 1 2
- 0.19856 2 3 tcp 1040 ------- 0 0.0 3.0 1 2
r 0.20688 1 2 tcp 1040 ------- 0 0.0 3.0 2 3
+ 0.20688 2 3 tcp 1040 ------- 0 0.0 3.0 2 3
- 0.20688 2 3 tcp 1040 ------- 0 0.0 3.0 2 3
r 0.21688 2 3 tcp 1040 ------- 0 0.0 3.0 1 2
r 0.2252 2 3 tcp 1040 ------- 0 0.0 3.0 2 3
+ 0.2252 3 2 ack 40 ------- 0 3.0 0.0 2 4
- 0.2252 3 2 ack 40 ------- 0 3.0 0.0 2 4
r 0.23552 3 2 ack 40 ------- 0 3.0 0.0 2 4
+ 0.23552 2 1 ack 40 ------- 0 3.0 0.0 2 4
- 0.23552 2 1 ack 40 ------- 0 3.0 0.0 2 4
r 0.24584 2 1 ack 40 ------- 0 3.0 0.0 2 4
+ 0.24584 1 0 ack 40 ------- 0 3.0 0.0 2 4
- 0.24584 1 0 ack 40 ------- 0 3.0 0.0 2 4
r 0.25616 1 0 ack 40 ------- 0 3.0 0.0 2 4
+ 0.25616 0 1 tcp 1040 ------- 0 0.0 3.0 3 5
- 0.25616 0 1 tcp 1040 ------- 0 0.0 3.0 3 5
+ 0.25616 0 1 tcp 1040 ------- 0 0.0 3.0 4 6
+ 0.25616 0 1 tcp 1040 ------- 0 0.0 3.0 5 7
- 0.26448 0 1 tcp 1040 ------- 0 0.0 3.0 4 6
- 0.2728 0 1 tcp 1040 ------- 0 0.0 3.0 5 7
r 0.27448 0 1 tcp 1040 ------- 0 0.0 3.0 3 5
+ 0.27448 1 2 tcp 1040 ------- 0 0.0 3.0 3 5
- 0.27448 1 2 tcp 1040 ------- 0 0.0 3.0 3 5
r 0.2828 0 1 tcp 1040 ------- 0 0.0 3.0 4 6
+ 0.2828 1 2 tcp 1040 ------- 0 0.0 3.0 4 6
- 0.2828 1 2 tcp 1040 ------- 0 0.0 3.0 4 6
r 0.29112 0 1 tcp 1040 ------- 0 0.0 3.0 5 7
+ 0.29112 1 2 tcp 1040 ------- 0 0.0 3.0 5 7
- 0.29112 1 2 tcp 1040 ------- 0 0.0 3.0 5 7
r 0.2928 1 2 tcp 1040 ------- 0 0.0 3.0 3 5
+ 0.2928 2 3 tcp 1040 ------- 0 0.0 3.0 3 5
- 0.2928 2 3 tcp 1040 ------- 0 0.0 3.0 3 5
r 0.30112 1 2 tcp 1040 ------- 0 0.0 3.0 4 6
+ 0.30112 2 3 tcp 1040 ------- 0 0.0 3.0 4 6
- 0.30112 2 3 tcp 1040 ------- 0 0.0 3.0 4 6
r 0.30944 1 2 tcp 1040 ------- 0 0.0 3.0 5 7
+ 0.30944 2 3 tcp 1040 ------- 0 0.0 3.0 5 7
- 0.30944 2 3 tcp 1040 ------- 0 0.0 3.0 5 7
r 0.31112 2 3 tcp 1040 ------- 0 0.0 3.0 3 5
r 0.31944 2 3 tcp 1040 ------- 0 0.0 3.0 4 6
+ 0.31944 3 2 ack 40 ------- 0 3.0 0.0 4 8
- 0.31944 3 2 ack 40 ------- 0 3.0 0.0 4 8
r 0.32776 2 3 tcp 1040 ------- 0 0.0 3.0 5 7
r 0.32976 3 2 ack 40 ------- 0 3.0 0.0 4 8
+ 0.32976 2 1 ack 40 ------- 0 3.0 0.0 4 8
- 0.32976 2 1 ack 40 ------- 0 3.0 0.0 4 8
r 0.34008 2 1 ack 40 ------- 0 3.0 0.0 4 8
+ 0.34008 1 0 ack 40 ------- 0 3.0 0.0 4 8
- 0.34008 1 0 ack 40 ------- 0 3.0 0.0 4 8
r 0.3504 1 0 ack 40 ------- 0 3.0 0.0 4 8
+ 0.3504 0 1 tcp 1040 ------- 0 0.0 3.0 6 9
- 0.3504 0 1 tcp 1040 ------- 0 0.0 3.0 6 9
+ 0.3504 0 1 tcp 1040 ------- 0 0.0 3.0 7 10
+ 0.3504 0 1 tcp 1040 ------- 0 0.0 3.0 8 11
- 0.35872 0 1 tcp 1040 ------- 0 0.0 3.0 7 10
- 0.36704 0 1 tcp 1040 ------- 0 0.0 3.0 8 11
r 0.36872 0 1 tcp 1040 ------- 0 0.0 3.0 6 9
+ 0.36872 1 2 tcp 1040 ------- 0 0.0 3.0 6 9
- 0.36872 1 2 tcp 1040 ------- 0 0.0 3.0 6 9
r 0.37704 0 1 tcp 1040 ------- 0 0.0 3.0 7 10
+ 0.37704 1 2 tcp 1040 ------- 0 0.0 3.0 7 10
- 0.37704 1 2 tcp 1040 ------- 0 0.0 3.0 7 10
r 0.38536 0 1 tcp 1040 ------- 0 0.0 3.0 8 11
+ 0.38536 1 2 tcp 1040 ------- 0 0.0 3.0 8 11
- 0.38536 1 2 tcp 1040 ------- 0 0.0 3.0 8 11
r 0.38704 1 2 tcp 1040 ------- 0 0.0 3.0 6 9
+ 0.38704 2 3 tcp 1040 ------- 0 0.0 3.0 6 9
- 0.38704 2 3 tcp 1040 ------- 0 0.0 3.0 6 9
r 0.39536 1 2 tcp 1040 ------- 0 0.0 3.0 7 10
+ 0.39536 2 3 tcp 1040 ------- 0 0.0 3.0 7 10
- 0.39536 2 3 tcp 1040 ------- 0 0.0 3.0 7 10
r 0.40368 1 2 tcp 1040 ------- 0 0.0 3.0 8 11
+ 0.40368 2 3 tcp 1040 ------- 0 0.0 3.0 8 11
- 0.40368 2 3 tcp 1040 ------- 0 0.0 3.0 8 11
r 0.40536 2 3 tcp 1040 ------- 0 0.0 3.0 6 9
+ 0.40536 3 2 ack 40 ------- 0 3.0 0.0 6 12
- 0.40536 3 2 ack 40 ------- 0 3.0 0.0 6 12
r 0.41368 2 3 tcp 1040 ------- 0 0.0 3.0 7 10
r 0.41568 3 2 ack 40 ------- 0 3.0 0.0 6 12
+ 0.41568 2 1 ack 40 ------- 0 3.0 0.0 6 12
- 0.41568 2 1 ack 40 ------- 0 3.0 0.0 6 12
r 0.422 2 3 tcp 1040 ------- 0 0.0 3.0 8 11
+ 0.422 3 2 ack 40 ------- 0 3.0 0.0 8 13
- 0.422 3 2 ack 40 ------- 0 3.0 0.0 8 13
r 0.426 2 1 ack 40 ------- 0 3.0 0.0 6 12
+ 0.426 1 0 ack 40 ------- 0 3.0 0.0 6 12
- 0.426 1 0 ack 40 ------- 0 3.0 0.0 6 12
r 0.43232 3 2 ack 40 ------- 0 3.0 0.0 8 13
+ 0.43232 2 1 ack 40 ------- 0 3.0 0.0 8 13
- 0.43232 2 1 ack 40 ------- 0 3.0 0.0 8 13
r 0.43632 1 0 ack 40 ------- 0 3.0 0.0 6 12
+ 0.43632 0 1 tcp 1040 ------- 0 0.0 3.0 9 14
- 0.43632 0 1 tcp 1040 ------- 0 0.0 3.0 9 14
+ 0.43632 0 1 tcp 1040 ------- 0 0.0 3.0 10 15
+ 0.43632 0 1 tcp 1040 ------- 0 0.0 3.0 11 16
r 0.44264 2 1 ack 40 ------- 0 3.0 0.0 8 13
+ 0.44264 1 0 ack 40 ------- 0 3.0 0.0 8 13
- 0.44264 1 0 ack 40 ------- 0 3.0 0.0 8 13
- 0.44464 0 1 tcp 1040 ------- 0 0.0 3.0 10 15
r 0.45296 1 0 ack 40 ------- 0 3.0 0.0 8 13
+ 0.45296 0 1 tcp 1040 ------- 0 0.0 3.0 12 17
+ 0.45296 0 1 tcp 1040 ------- 0 0.0 3.0 13 18
+ 0.45296 0 1 tcp 1040 ------- 0 0.0 3.0 14 19
- 0.45296 0 1 tcp 1040 ------- 0 0.0 3.0 11 16
r 0.45464 0 1 tcp 1040 ------- 0 0.0 3.0 9 14
+ 0.45464 1 2 tcp 1040 ------- 0 0.0 3.0 9 14
- 0.45464 1 2 tcp 1040 ------- 0 0.0 3.0 9 14
- 0.46128 0 1 tcp 1040 ------- 0 0.0 3.0 12 17
r 0.46296 0 1 tcp 1040 ------- 0 0.0 3.0 10 15
+ 0.46296 1 2 tcp 1040 ------- 0 0.0 3.0 10 15
- 0.46296 1 2 tcp 1040 ------- 0 0.0 3.0 10 15
- 0.4696 0 1 tcp 1040 ------- 0 0.0 3.0 13 18
r 0.47128 0 1 tcp 1040 ------- 0 0.0 3.0 11 16
+ 0.47128 1 2 tcp 1040 ------- 0 0.0 3.0 11 16
- 0.47128 1 2 tcp 1040 ------- 0 0.0 3.0 11 16
r 0.47296 1 2 tcp 1040 ------- 0 0.0 3.0 9 14
+ 0.47296 2 3 tcp 1040 ------- 0 0.0 3.0 9 14
- 0.47296 2 3 tcp 1040 ------- 0 0.0 3.0 9 14
- 0.47792 0 1 tcp 1040 ------- 0 0.0 3.0 14 19
r 0.4796 0 1 tcp 1040 ------- 0 0.0 3.0 12 17
+ 0.4796 1 2 tcp 1040 ------- 0 0.0 3.0 12 17
- 0.4796 1 2 tcp 1040 ------- 0 0.0 3.0 12 17
r 0.48128 1 2 tcp 1040 ------- 0 0.0 3.0 10 15
+ 0.48128 2 3 tcp 1040 ------- 0 0.0 3.0 10 15
- 0.48128 2 3 tcp 1040 ------- 0 0.0 3.0 10 15
r 0.48792 0 1 tcp 1040 ------- 0 0.0 3.0 13 18
+ 0.48792 1 2 tcp 1040 ------- 0 0.0 3.0 13 18
- 0.48792 1 2 tcp 1040 ------- 0 0.0 3.0 13 18
r 0.4896 1 2 tcp 1040 ------- 0 0.0 3.0 11 16
+ 0.4896 2 3 tcp 1040 ------- 0 0.0 3.0 11 16
- 0.4896 2 3 tcp 1040 ------- 0 0.0 3.0 11 16
r 0.49128 2 3 tcp 1040 ------- 0 0.0 3.0 9 14
r 0.49624 0 1 tcp 1040 ------- 0 0.0 3.0 14 19
+ 0.49624 1 2 tcp 1040 ------- 0 0.0 3.0 14 19
- 0.49624 1 2 tcp 1040 ------- 0 0.0 3.0 14 19
r 0.49792 1 2 tcp 1040 ------- 0 0.0 3.0 12 17
+ 0.49792 2 3 tcp 1040 ------- 0 0.0 3.0 12 17
- 0.49792 2 3 tcp 1040 ------- 0 0.0 3.0 12 17
r 0.4996 2 3 tcp 1040 ------- 0 0.0 3.0 10 15
+ 0.4996 3 2 ack 40 ------- 0 3.0 0.0 10 20
- 0.4996 3 2 ack 40 ------- 0 3.0 0.0 10 20
r 0.50624 1 2 tcp 1040 ------- 0 0.0 3.0 13 18
+ 0.50624 2 3 tcp 1040 ------- 0 0.0 3.0 13 18
- 0.50624 2 3 tcp 1040 ------- 0 0.0 3.0 13 18
r 0.50792 2 3 tcp 1040 ------- 0 0.0 3.0 11 16
r 0.50992 3 2 ack 40 ------- 0 3.0 0.0 10 20
+ 0.50992 2 1 ack 40 ------- 0 3.0 0.0 10 20
- 0.50992 2 1 ack 40 ------- 0 3.0 0.0 10 20
r 0.51456 1 2 tcp 1040 ------- 0 0.0 3.0 14 19
+ 0.51456 2 3 tcp 1040 ------- 0 0.0 3.0 14 19
- 0.51456 2 3 tcp 1040 ------- 0 0.0 3.0 14 19
r 0.51624 2 3 tcp 1040 ------- 0 0.0 3.0 12 17
+ 0.51624 3 2 ack 40 ------- 0 3.0 0.0 12 21
- 0.51624 3 2 ack 40 ------- 0 3.0 0.0 12 21
r 0.52024 2 1 ack 40 ------- 0 3.0 0.0 10 20
+ 0.52024 1 0 ack 40 ------- 0 3.0 0.0 10 20
- 0.52024 1 0 ack 40 ------- 0 3.0 0.0 10 20
r 0.52456 2 3 tcp 1040 ------- 0 0.0 3.0 13 18
r 0.52656 3 2 ack 40 ------- 0 3.0 0.0 12 21
+ 0.52656 2 1 ack 40 ------- 0 3.0 0.0 12 21
- 0.52656 2 1 ack 40 ------- 0 3.0 0.0 12 21
r 0.53056 1 0 ack 40 ------- 0 3.0 0.0 10 20
+ 0.53056 0 1 tcp 1040 ------- 0 0.0 3.0 15 22
- 0.53056 0 1 tcp 1040 ------- 0 0.0 3.0 15 22
+ 0.53056 0 1 tcp 1040 ------- 0 0.0 3.0 16 23
+ 0.53056 0 1 tcp 1040 ------- 0 0.0 3.0 17 24
r 0.53288 2 3 tcp 1040 ------- 0 0.0 3.0 14 19
+ 0.53288 3 2 ack 40 ------- 0 3.0 0.0 14 25
- 0.53288 3 2 ack 40 ------- 0 3.0 0.0 14 25
r 0.53688 2 1 ack 40 ------- 0 3.0 0.0 12 21
+ 0.53688 1 0 ack 40 ------- 0 3.0 0.0 12 21
- 0.53688 1 0 ack 40 ------- 0 3.0 0.0 12 21
- 0.53888 0 1 tcp 1040 ------- 0 0.0 3.0 16 23
r 0.5432 3 2 ack 40 ------- 0 3.0 0.0 14 25
+ 0.5432 2 1 ack 40 ------- 0 3.0 0.0 14 25
- 0.5432 2 1 ack 40 ------- 0 3.0 0.0 14 25
r 0.5472 1 0 ack 40 ------- 0 3.0 0.0 12 21
+ 0.5472 0 1 tcp 1040 ------- 0 0.0 3.0 18 26
+ 0.5472 0 1 tcp 1040 ------- 0 0.0 3.0 19 27
+ 0.5472 0 1 tcp 1040 ------- 0 0.0 3.0 20 28
- 0.5472 0 1 tcp 1040 ------- 0 0.0 3.0 17 24
r 0.54888 0 1 tcp 1040 ------- 0 0.0 3.0 15 22
+ 0.54888 1 2 tcp 1040 ------- 0 0.0 3.0 15 22
- 0.54888 1 2 tcp 1040 ------- 0 0.0 3.0 15 22
r 0.55352 2 1 ack 40 ------- 0 3.0 0.0 14 25
+ 0.55352 1 0 ack 40 ------- 0 3.0 0.0 14 25
- 0.55352 1 0 ack 40 ------- 0 3.0 0.0 14 25
- 0.55552 0 1 tcp 1040 ------- 0 0.0 3.0 18 26
r 0.5572 0 1 tcp 1040 ------- 0 0.0 3.0 16 23
+ 0.5572 1 2 tcp 1040 ------- 0 0.0 3.0 16 23
- 0.5572 1 2 tcp 1040 ------- 0 0.0 3.0 16 23
r 0.56384 1 0 ack 40 ------- 0 3.0 0.0 14 25
+ 0.56384 0 1 tcp 1040 ------- 0 0.0 3.0 21 29
+ 0.56384 0 1 tcp 1040 ------- 0 0.0 3.0 22 30
+ 0.56384 0 1 tcp 1040 ------- 0 0.0 3.0 23 31
- 0.56384 0 1 tcp 1040 ------- 0 0.0 3.0 19 27
r 0.56552 0 1 tcp 1040 ------- 0 0.0 3.0 17 24
+ 0.56552 1 2 tcp 1040 ------- 0 0.0 3.0 17 24
- 0.56552 1 2 tcp 1040 ------- 0 0.0 3.0 17 24
r 0.5672 1 2 tcp 1040 ------- 0 0.0 3.0 15 22
+ 0.5672 2 3 tcp 1040 ------- 0 0.0 3.0 15 22
- 0.5672 2 3 tcp 1040 ------- 0 0.0 3.0 15 22
- 0.57216 0 1 tcp 1040 ------- 0 0.0 3.0 20 28
r 0.57384 0 1 tcp 1040 ------- 0 0.0 3.0 18 26
+ 0.57384 1 2 tcp 1040 ------- 0 0.0 3.0 18 26
- 0.57384 1 2 tcp 1040 ------- 0 0.0 3.0 18 26
r 0.57552 1 2 tcp 1040 ------- 0 0.0 3.0 16 23
+ 0.57552 2 3 tcp 1040 ------- 0 0.0 3.0 16 23
- 0.57552 2 3 tcp 1040 ------- 0 0.0 3.0 16 23
- 0.58048 0 1 tcp 1040 ------- 0 0.0 3.0 21 29
r 0.58216 0 1 tcp 1040 ------- 0 0.0 3.0 19 27
+ 0.58216 1 2 tcp 1040 ------- 0 0.0 3.0 19 27
- 0.58216 1 2 tcp 1040 ------- 0 0.0 3.0 19 27
r 0.58384 1 2 tcp 1040 ------- 0 0.0 3.0 17 24
+ 0.58384 2 3 tcp 1040 ------- 0 0.0 3.0 17 24
- 0.58384 2 3 tcp 1040 ------- 0 0.0 3.0 17 24
r 0.58552 2 3 tcp 1040 ------- 0 0.0 3.0 15 22
- 0.5888 0 1 tcp 1040 ------- 0 0.0 3.0 22 30
r 0.59048 0 1 tcp 1040 ------- 0 0.0 3.0 20 28
+ 0.59048 1 2 tcp 1040 ------- 0 0.0 3.0 20 28
- 0.59048 1 2 tcp 1040 ------- 0 0.0 3.0 20 28
r 0.59216 1 2 tcp 1040 ------- 0 0.0 3.0 18 26
+ 0.59216 2 3 tcp 1040 ------- 0 0.0 3.0 18 26
- 0.59216 2 3 tcp 1040 ------- 0 0.0 3.0 18 26
r 0.59384 2 3 tcp 1040 ------- 0 0.0 3.0 16 23
+ 0.59384 3 2 ack 40 ------- 0 3.0 0.0 16 32
- 0.59384 3 2 ack 40 ------- 0 3.0 0.0 16 32
- 0.59712 0 1 tcp 1040 ------- 0 0.0 3.0 23 31
r 0.5988 0 1 tcp 1040 ------- 0 0.0 3.0 21 29
+ 0.5988 1 2 tcp 1040 ------- 0 0.0 3.0 21 29
- 0.5988 1 2 tcp 1040 ------- 0 0.0 3.0 21 29
r 0.60048 1 2 tcp 1040 ------- 0 0.0 3.0 19 27
+ 0.60048 2 3 tcp 1040 ------- 0 0.0 3.0 19 27
- 0.60048 2 3 tcp 1040 ------- 0 0.0 3.0 19 27
r 0.60216 2 3 tcp 1040 ------- 0 0.0 3.0 17 24
r 0.60416 3 2 ack 40 ------- 0 3.0 0.0 16 32
+ 0.60416 2 1 ack 40 ------- 0 3.0 0.0 16 32
- 0.60416 2 1 ack 40 ------- 0 3.0 0.0 16 32
r 0.60712 0 1 tcp 1040 ------- 0 0.0 3.0 22 30
+ 0.60712 1 2 tcp 1040 ------- 0 0.0 3.0 22 30
- 0.60712 1 2 tcp 1040 ------- 0 0.0 3.0 22 30
r 0.6088 1 2 tcp 1040 ------- 0 0.0 3.0 20 28
+ 0.6088 2 3 tcp 1040 ------- 0 0.0 3.0 20 28
- 0.6088 2 3 tcp 1040 ------- 0 0.0 3.0 20 28
r 0.61048 2 3 tcp 1040 ------- 0 0.0 3.0 18 26
+ 0.61048 3 2 ack 40 ------- 0 3.0 0.0 18 33
- 0.61048 3 2 ack 40 ------- 0 3.0 0.0 18 33
r 0.61448 2 1 ack 40 ------- 0 3.0 0.0 16 32
+ 0.61448 1 0 ack 40 ------- 0 3.0 0.0 16 32
- 0.61448 1 0 ack 40 ------- 0 3.0 0.0 16 32
r 0.61544 0 1 tcp 1040 ------- 0 0.0 3.0 23 31
+ 0.61544 1 2 tcp 1040 ------- 0 0.0 3.0 23 31
- 0.61544 1 2 tcp 1040 ------- 0 0.0 3.0 23 31
r 0.61712 1 2 tcp 1040 ------- 0 0.0 3.0 21 29
+ 0.61712 2 3 tcp 1040 ------- 0 0.0 3.0 21 29
- 0.61712 2 3 tcp 1040 ------- 0 0.0 3.0 21 29
r 0.6188 2 3 tcp 1040 ------- 0 0.0 3.0 19 27
r 0.6208 3 2 ack 40 ------- 0 3.0 0.0 18 33
+ 0.6208 2 1 ack 40 ------- 0 3.0 0.0 18 33
- 0.6208 2 1 ack 40 ------- 0 3.0 0.0 18 33
r 0.6248 1 0 ack 40 ------- 0 3.0 0.0 16 32
+ 0.6248 0 1 tcp 1040 ------- 0 0.0 3.0 24 34
- 0.6248 0 1 tcp 1040 ------- 0 0.0 3.0 24 34
+ 0.6248 0 1 tcp 1040 ------- 0 0.0 3.0 25 35
+ 0.6248 0 1 tcp 1040 ------- 0 0.0 3.0 26 36
r 0.62544 1 2 tcp 1040 ------- 0 0.0 3.0 22 30
+ 0.62544 2 3 tcp 1040 ------- 0 0.0 3.0 22 30
- 0.62544 2 3 tcp 1040 ------- 0 0.0 3.0 22 30
r 0.62712 2 3 tcp 1040 ------- 0 0.0 3.0 20 28
+ 0.62712 3 2 ack 40 ------- 0 3.0 0.0 20 37
- 0.62712 3 2 ack 40 ------- 0 3.0 0.0 20 37
r 0.63112 2 1 ack 40 ------- 0 3.0 0.0 18 33
+ 0.63112 1 0 ack 40 ------- 0 3.0 0.0 18 33
- 0.63112 1 0 ack 40 ------- 0 3.0 0.0 18 33
- 0.63312 0 1 tcp 1040 ------- 0 0.0 3.0 25 35
r 0.63376 1 2 tcp 1040 ------- 0 0.0 3.0 23 31
+ 0.63376 2 3 tcp 1040 ------- 0 0.0 3.0 23 31
- 0.63376 2 3 tcp 1040 ------- 0 0.0 3.0 23 31
r 0.63544 2 3 tcp 1040 ------- 0 0.0 3.0 21 29
r 0.63744 3 2 ack 40 ------- 0 3.0 0.0 20 37
+ 0.63744 2 1 ack 40 ------- 0 3.0 0.0 20 37
- 0.63744 2 1 ack 40 ------- 0 3.0 0.0 20 37
r 0.64144 1 0 ack 40 ------- 0 3.0 0.0 18 33
+ 0.64144 0 1 tcp 1040 ------- 0 0.0 3.0 27 38
+ 0.64144 0 1 tcp 1040 ------- 0 0.0 3.0 28 39
+ 0.64144 0 1 tcp 1040 ------- 0 0.0 3.0 29 40
- 0.64144 0 1 tcp 1040 ------- 0 0.0 3.0 26 36
r 0.64312 0 1 tcp 1040 ------- 0 0.0 3.0 24 34
+ 0.64312 1 2 tcp 1040 ------- 0 0.0 3.0 24 34
- 0.64312 1 2 tcp 1040 ------- 0 0.0 3.0 24 34
r 0.64376 2 3 tcp 1040 ------- 0 0.0 3.0 22 30
+ 0.64376 3 2 ack 40 ------- 0 3.0 0.0 22 41
- 0.64376 3 2 ack 40 ------- 0 3.0 0.0 22 41
r 0.64776 2 1 ack 40 ------- 0 3.0 0.0 20 37
+ 0.64776 1 0 ack 40 ------- 0 3.0 0.0 20 37
- 0.64776 1 0 ack 40 ------- 0 3.0 0.0 20 37
- 0.64976 0 1 tcp 1040 ------- 0 0.0 3.0 27 38
r 0.65144 0 1 tcp 1040 ------- 0 0.0 3.0 25 35
+ 0.65144 1 2 tcp 1040 ------- 0 0.0 3.0 25 35
- 0.65144 1 2 tcp 1040 ------- 0 0.0 3.0 25 35
r 0.65208 2 3 tcp 1040 ------- 0 0.0 3.0 23 31
r 0.65408 3 2 ack 40 ------- 0 3.0 0.0 22 41
+ 0.65408 2 1 ack 40 ------- 0 3.0 0.0 22 41
- 0.65408 2 1 ack 40 ------- 0 3.0 0.0 22 41
r 0.65808 1 0 ack 40 ------- 0 3.0 0.0 20 37
+ 0.65808 0 1 tcp 1040 ------- 0 0.0 3.0 30 42
+ 0.65808 0 1 tcp 1040 ------- 0 0.0 3.0 31 43
+ 0.65808 0 1 tcp 1040 ------- 0 0.0 3.0 32 44
- 0.65808 0 1 tcp 1040 ------- 0 0.0 3.0 28 39
r 0.65976 0 1 tcp 1040 ------- 0 0.0 3.0 26 36
+ 0.65976 1 2 tcp 1040 ------- 0 0.0 3.0 26 36
- 0.65976 1 2 tcp 1040 ------- 0 0.0 3.0 26 36
r 0.66144 1 2 tcp 1040 ------- 0 0.0 3.0 24 34
+ 0.66144 2 3 tcp 1040 ------- 0 0.0 3.0 24 34
- 0.66144 2 3 tcp 1040 ------- 0 0.0 3.0 24 34
r 0.6644 2 1 ack 40 ------- 0 3.0 0.0 22 41
+ 0.6644 1 0 ack 40 ------- 0 3.0 0.0 22 41
- 0.6644 1 0 ack 40 ------- 0 3.0 0.0 22 41
- 0.6664 0 1 tcp 1040 ------- 0 0.0 3.0 29 40
r 0.66808 0 1 tcp 1040 ------- 0 0.0 3.0 27 38
+ 0.66808 1 2 tcp 1040 ------- 0 0.0 3.0 27 38
- 0.66808 1 2 tcp 1040 ------- 0 0.0 3.0 27 38
r 0.66976 1 2 tcp 1040 ------- 0 0.0 3.0 25 35
+ 0.66976 2 3 tcp 1040 ------- 0 0.0 3.0 25 35
- 0.66976 2 3 tcp 1040 ------- 0 0.0 3.0 25 35
r 0.67472 1 0 ack 40 ------- 0 3.0 0.0 22 41
+ 0.67472 0 1 tcp 1040 ------- 0 0.0 3.0 33 45
+ 0.67472 0 1 tcp 1040 ------- 0 0.0 3.0 34 46
+ 0.67472 0 1 tcp 1040 ------- 0 0.0 3.0 35 47
- 0.67472 0 1 tcp 1040 ------- 0 0.0 3.0 30 42
r 0.6764 0 1 tcp 1040 ------- 0 0.0 3.0 28 39
+ 0.6764 1 2 tcp 1040 ------- 0 0.0 3.0 28 39
- 0.6764 1 2 tcp 1040 ------- 0 0.0 3.0 28 39
r 0.67808 1 2 tcp 1040 ------- 0 0.0 3.0 26 36
+ 0.67808 2 3 tcp 1040 ------- 0 0.0 3.0 26 36
- 0.67808 2 3 tcp 1040 ------- 0 0.0 3.0 26 36
r 0.67976 2 3 tcp 1040 ------- 0 0.0 3.0 24 34
+ 0.67976 3 2 ack 40 ------- 0 3.0 0.0 24 48
- 0.67976 3 2 ack 40 ------- 0 3.0 0.0 24 48
- 0.68304 0 1 tcp 1040 ------- 0 0.0 3.0 31 43
r 0.68472 0 1 tcp 1040 ------- 0 0.0 3.0 29 40
+ 0.68472 1 2 tcp 1040 ------- 0 0.0 3.0 29 40
- 0.68472 1 2 tcp 1040 ------- 0 0.0 3.0 29 40
r 0.6864 1 2 tcp 1040 ------- 0 0.0 3.0 27 38
+ 0.6864 2 3 tcp 1040 ------- 0 0.0 3.0 27 38
- 0.6864 2 3 tcp 1040 ------- 0 0.0 3.0 27 38
r 0.68808 2 3 tcp 1040 ------- 0 0.0 3.0 25 35
r 0.69008 3 2 ack 40 ------- 0 3.0 0.0 24 48
+ 0.69008 2 1 ack 40 ------- 0 3.0 0.0 24 48
- 0.69008 2 1 ack 40 ------- 0 3.0 0.0 24 48
- 0.69136 0 1 tcp 1040 ------- 0 0.0 3.0 32 44
r 0.69304 0 1 tcp 1040 ------- 0 0.0 3.0 30 42
+ 0.69304 1 2 tcp 1040 ------- 0 0.0 3.0 30 42
- 0.69304 1 2 tcp 1040 ------- 0 0.0 3.0 30 42
r 0.69472 1 2 tcp 1040 ------- 0 0.0 3.0 28 39
+ 0.69472 2 3 tcp 1040 ------- 0 0.0 3.0 28 39
- 0.69472 2 3 tcp 1040 ------- 0 0.0 3.0 28 39
r 0.6964 2 3 tcp 1040 ------- 0 0.0 3.0 26 36
+ 0.6964 3 2 ack 40 ------- 0 3.0 0.0 26 49
- 0.6964 3 2 ack 40 ------- 0 3.0 0.0 26 49
- 0.69968 0 1 tcp 1040 ------- 0 0.0 3.0 33 45
r 0.7004 2 1 ack 40 ------- 0 3.0 0.0 24 48
+ 0.7004 1 0 ack 40 ------- 0 3.0 0.0 24 48
- 0.7004 1 0 ack 40 ------- 0 3.0 0.0 24 48
r 0.70136 0 1 tcp 1040 ------- 0 0.0 3.0 31 43
+ 0.70136 1 2 tcp 1040 ------- 0 0.0 3.0 31 43
- 0.70136 1 2 tcp 1040 ------- 0 0.0 3.0 31 43
r 0.70304 1 2 tcp 1040 ------- 0 0.0 3.0 29 40
+ 0.70304 2 3 tcp 1040 ------- 0 0.0 3.0 29 40
- 0.70304 2 3 tcp 1040 ------- 0 0.0 3.0 29 40
r 0.70472 2 3 tcp 1040 ------- 0 0.0 3.0 27 38
r 0.70672 3 2 ack 40 ------- 0 3.0 0.0 26 49
+ 0.70672 2 1 ack 40 ------- 0 3.0 0.0 26 49
- 0.70672 2 1 ack 40 ------- 0 3.0 0.0 26 49
- 0.708 0 1 tcp 1040 ------- 0 0.0 3.0 34 46
r 0.70968 0 1 tcp 1040 ------- 0 0.0 3.0 32 44
+ 0.70968 1 2 tcp 1040 ------- 0 0.0 3.0 32 44
- 0.70968 1 2 tcp 1040 ------- 0 0.0 3.0 32 44
r 0.71072 1 0 ack 40 ------- 0 3.0 0.0 24 48
+ 0.71072 0 1 tcp 1040 ------- 0 0.0 3.0 36 50
+ 0.71072 0 1 tcp 1040 ------- 0 0.0 3.0 37 51
+ 0.71072 0 1 tcp 1040 ------- 0 0.0 3.0 38 52
r 0.71136 1 2 tcp 1040 ------- 0 0.0 3.0 30 42
+ 0.71136 2 3 tcp 1040 ------- 0 0.0 3.0 30 42
- 0.71136 2 3 tcp 1040 ------- 0 0.0 3.0 30 42
r 0.71304 2 3 tcp 1040 ------- 0 0.0 3.0 28 39
+ 0.71304 3 2 ack 40 ------- 0 3.0 0.0 28 53
- 0.71304 3 2 ack 40 ------- 0 3.0 0.0 28 53
- 0.71632 0 1 tcp 1040 ------- 0 0.0 3.0 35 47
r 0.71704 2 1 ack 40 ------- 0 3.0 0.0 26 49
+ 0.71704 1 0 ack 40 ------- 0 3.0 0.0 26 49
- 0.71704 1 0 ack 40 ------- 0 3.0 0.0 26 49
r 0.718 0 1 tcp 1040 ------- 0 0.0 3.0 33 45
+ 0.718 1 2 tcp 1040 ------- 0 0.0 3.0 33 45
- 0.718 1 2 tcp 1040 ------- 0 0.0 3.0 33 45
r 0.71968 1 2 tcp 1040 ------- 0 0.0 3.0 31 43
+ 0.71968 2 3 tcp 1040 ------- 0 0.0 3.0 31 43
- 0.71968 2 3 tcp 1040 ------- 0 0.0 3.0 31 43
r 0.72136 2 3 tcp 1040 ------- 0 0.0 3.0 29 40
r 0.72336 3 2 ack 40 ------- 0 3.0 0.0 28 53
+ 0.72336 2 1 ack 40 ------- 0 3.0 0.0 28 53
- 0.72336 2 1 ack 40 ------- 0 3.0 0.0 28 53
- 0.72464 0 1 tcp 1040 ------- 0 0.0 3.0 36 50
r 0.72632 0 1 tcp 1040 ------- 0 0.0 3.0 34 46
+ 0.72632 1 2 tcp 1040 ------- 0 0.0 3.0 34 46
- 0.72632 1 2 tcp 1040 ------- 0 0.0 3.0 34 46
r 0.72736 1 0 ack 40 ------- 0 3.0 0.0 26 49
+ 0.72736 0 1 tcp 1040 ------- 0 0.0 3.0 39 54
+ 0.72736 0 1 tcp 1040 ------- 0 0.0 3.0 40 55
+ 0.72736 0 1 tcp 1040 ------- 0 0.0 3.0 41 56
r 0.728 1 2 tcp 1040 ------- 0 0.0 3.0 32 44
+ 0.728 2 3 tcp 1040 ------- 0 0.0 3.0 32 44
- 0.728 2 3 tcp 1040 ------- 0 0.0 3.0 32 44
r 0.72968 2 3 tcp 1040 ------- 0 0.0 3.0 30 42
+ 0.72968 3 2 ack 40 ------- 0 3.0 0.0 30 57
- 0.72968 3 2 ack 40 ------- 0 3.0 0.0 30 57
- 0.73296 0 1 tcp 1040 ------- 0 0.0 3.0 37 51
r 0.73368 2 1 ack 40 ------- 0 3.0 0.0 28 53
+ 0.73368 1 0 ack 40 ------- 0 3.0 0.0 28 53
- 0.73368 1 0 ack 40 ------- 0 3.0 0.0 28 53
r 0.73464 0 1 tcp 1040 ------- 0 0.0 3.0 35 47
+ 0.73464 1 2 tcp 1040 ------- 0 0.0 3.0 35 47
- 0.73464 1 2 tcp 1040 ------- 0 0.0 3.0 35 47
r 0.73632 1 2 tcp 1040 ------- 0 0.0 3.0 33 45
+ 0.73632 2 3 tcp 1040 ------- 0 0.0 3.0 33 45
- 0.73632 2 3 tcp 1040 ------- 0 0.0 3.0 33 45
r 0.738 2 3 tcp 1040 ------- 0 0.0 3.0 31 43
r 0.74 3 2 ack 40 ------- 0 3.0 0.0 30 57
+ 0.74 2 1 ack 40 ------- 0 3.0 0.0 30 57
- 0.74 2 1 ack 40 ------- 0 3.0 0.0 30 57
- 0.74128 0 1 tcp 1040 ------- 0 0.0 3.0 38 52
r 0.74296 0 1 tcp 1040 ------- 0 0.0 3.0 36 50
+ 0.74296 1 2 tcp 1040 ------- 0 0.0 3.0 36 50
- 0.74296 1 2 tcp 1040 ------- 0 0.0 3.0 36 50
r 0.744 1 0 ack 40 ------- 0 3.0 0.0 28 53
+ 0.744 0 1 tcp 1040 ------- 0 0.0 3.0 42 58
+ 0.744 0 1 tcp 1040 ------- 0 0.0 3.0 43 59
+ 0.744 0 1 tcp 1040 ------- 0 0.0 3.0 44 60
r 0.74464 1 2 tcp 1040 ------- 0 0.0 3.0 34 46
+ 0.74464 2 3 tcp 1040 ------- 0 0.0 3.0 34 46
- 0.74464 2 3 tcp 1040 ------- 0 0.0 3.0 34 46
r 0.74632 2 3 tcp 1040 ------- 0 0.0 3.0 32 44
+ 0.74632 3 2 ack 40 ------- 0 3.0 0.0 32 61
- 0.74632 3 2 ack 40 ------- 0 3.0 0.0 32 61
- 0.7496 0 1 tcp 1040 ------- 0 0.0 3.0 39 54
r 0.75032 2 1 ack 40 ------- 0 3.0 0.0 30 57
+ 0.75032 1 0 ack 40 ------- 0 3.0 0.0 30 57
- 0.75032 1 0 ack 40 ------- 0 3.0 0.0 30 57
r 0.75128 0 1 tcp 1040 ------- 0 0.0 3.0 37 51
+ 0.75128 1 2 tcp 1040 ------- 0 0.0 3.0 37 51
- 0.75128 1 2 tcp 1040 ------- 0 0.0 3.0 37 51
r 0.75296 1 2 tcp 1040 ------- 0 0.0 3.0 35 47
+ 0.75296 2 3 tcp 1040 ------- 0 0.0 3.0 35 47
- 0.75296 2 3 tcp 1040 ------- 0 0.0 3.0 35 47
r 0.75464 2 3 tcp 1040 ------- 0 0.0 3.0 33 45
r 0.75664 3 2 ack 40 ------- 0 3.0 0.0 32 61
+ 0.75664 2 1 ack 40 ------- 0 3.0 0.0 32 61
- 0.75664 2 1 ack 40 ------- 0 3.0 0.0 32 61
- 0.75792 0 1 tcp 1040 ------- 0 0.0 3.0 40 55
r 0.7596 0 1 tcp 1040 ------- 0 0.0 3.0 38 52
+ 0.7596 1 2 tcp 1040 ------- 0 0.0 3.0 38 52
- 0.7596 1 2 tcp 1040 ------- 0 0.0 3.0 38 52
r 0.76064 1 0 ack 40 ------- 0 3.0 0.0 30 57
+ 0.76064 0 1 tcp 1040 ------- 0 0.0 3.0 45 62
+ 0.76064 0 1 tcp 1040 ------- 0 0.0 3.0 46 63
+ 0.76064 0 1 tcp 1040 ------- 0 0.0 3.0 47 64
r 0.76128 1 2 tcp 1040 ------- 0 0.0 3.0 36 50
+ 0.76128 2 3 tcp 1040 ------- 0 0.0 3.0 36 50
- 0.76128 2 3 tcp 1040 ------- 0 0.0 3.0 36 50
r 0.76296 2 3 tcp 1040 ------- 0 0.0 3.0 34 46
+ 0.76296 3 2 ack 40 ------- 0 3.0 0.0 34 65
- 0.76296 3 2 ack 40 ------- 0 3.0 0.0 34 65
- 0.76624 0 1 tcp 1040 ------- 0 0.0 3.0 41 56
r 0.76696 2 1 ack 40 ------- 0 3.0 0.0 32 61
+ 0.76696 1 0 ack 40 ------- 0 3.0 0.0 32 61
- 0.76696 1 0 ack 40 ------- 0 3.0 0.0 32 61
r 0.76792 0 1 tcp 1040 ------- 0 0.0 3.0 39 54
+ 0.76792 1 2 tcp 1040 ------- 0 0.0 3.0 39 54
- 0.76792 1 2 tcp 1040 ------- 0 0.0 3.0 39 54
r 0.7696 1 2 tcp 1040 ------- 0 0.0 3.0 37 51
+ 0.7696 2 3 tcp 1040 ------- 0 0.0 3.0 37 51
- 0.7696 2 3 tcp 1040 ------- 0 0.0 3.0 37 51
r 0.77128 2 3 tcp 1040 ------- 0 0.0 3.0 35 47
r 0.77328 3 2 ack 40 ------- 0 3.0 0.0 34 65
+ 0.77328 2 1 ack 40 ------- 0 3.0 0.0 34 65
- 0.77328 2 1 ack 40 ------- 0 3.0 0.0 34 65
- 0.77456 0 1 tcp 1040 ------- 0 0.0 3.0 42 58
r 0.77624 0 1 tcp 1040 ------- 0 0.0 3.0 40 55
+ 0.77624 1 2 tcp 1040 ------- 0 0.0 3.0 40 55
- 0.77624 1 2 tcp 1040 ------- 0 0.0 3.0 40 55
r 0.77728 1 0 ack 40 ------- 0 3.0 0.0 32 61
+ 0.77728 0 1 tcp 1040 ------- 0 0.0 3.0 48 66
+ 0.77728 0 1 tcp 1040 ------- 0 0.0 3.0 49 67
+ 0.77728 0 1 tcp 1040 ------- 0 0.0 3.0 50 68
r 0.77792 1 2 tcp 1040 ------- 0 0.0 3.0 38 52
+ 0.77792 2 3 tcp 1040 ------- 0 0.0 3.0 38 52
- 0.77792 2 3 tcp 1040 ------- 0 0.0 3.0 38 52
r 0.7796 2 3 tcp 1040 ------- 0 0.0 3.0 36 50
+ 0.7796 3 2 ack 40 ------- 0 3.0 0.0 36 69
- 0.7796 3 2 ack 40 ------- 0 3.0 0.0 36 69
- 0.78288 0 1 tcp 1040 ------- 0 0.0 3.0 43 59
r 0.7836 2 1 ack 40 ------- 0 3.0 0.0 34 65
+ 0.7836 1 0 ack 40 ------- 0 3.0 0.0 34 65
- 0.7836 1 0 ack 40 ------- 0 3.0 0.0 34 65
r 0.78456 0 1 tcp 1040 ------- 0 0.0 3.0 41 56
+ 0.78456 1 2 tcp 1040 ------- 0 0.0 3.0 41 56
- 0.78456 1 2 tcp 1040 ------- 0 0.0 3.0 41 56
r 0.78624 1 2 tcp 1040 ------- 0 0.0 3.0 39 54
+ 0.78624 2 3 tcp 1040 ------- 0 0.0 3.0 39 54
- 0.78624 2 3 tcp 1040 ------- 0 0.0 3.0 39 54
r 0.78792 2 3 tcp 1040 ------- 0 0.0 3.0 37 51
r 0.78992 3 2 ack 40 ------- 0 3.0 0.0 36 69
+ 0.78992 2 1 ack 40 ------- 0 3.0 0.0 36 69
- 0.78992 2 1 ack 40 ------- 0 3.0 0.0 36 69
- 0.7912 0 1 tcp 1040 ------- 0 0.0 3.0 44 60
r 0.79288 0 1 tcp 1040 ------- 0 0.0 3.0 42 58
+ 0.79288 1 2 tcp 1040 ------- 0 0.0 3.0 42 58
- 0.79288 1 2 tcp 1040 ------- 0 0.0 3.0 42 58
r 0.79392 1 0 ack 40 ------- 0 3.0 0.0 34 65
+ 0.79392 0 1 tcp 1040 ------- 0 0.0 3.0 51 70
+ 0.79392 0 1 tcp 1040 ------- 0 0.0 3.0 52 71
+ 0.79392 0 1 tcp 1040 ------- 0 0.0 3.0 53 72
r 0.79456 1 2 tcp 1040 ------- 0 0.0 3.0 40 55
+ 0.79456 2 3 tcp 1040 ------- 0 0.0 3.0 40 55
- 0.79456 2 3 tcp 1040 ------- 0 0.0 3.0 40 55
r 0.79624 2 3 tcp 1040 ------- 0 0.0 3.0 38 52
+ 0.79624 3 2 ack 40 ------- 0 3.0 0.0 38 73
- 0.79624 3 2 ack 40 ------- 0 3.0 0.0 38 73
- 0.79952 0 1 tcp 1040 ------- 0 0.0 3.0 45 62
r 0.80024 2 1 ack 40 ------- 0 3.0 0.0 36 69
+ 0.80024 1 0 ack 40 ------- 0 3.0 0.0 36 69
- 0.80024 1 0 ack 40 ------- 0 3.0 0.0 36 69
r 0.8012 0 1 tcp 1040 ------- 0 0.0 3.0 43 59
+ 0.8012 1 2 tcp 1040 ------- 0 0.0 3.0 43 59
- 0.8012 1 2 tcp 1040 ------- 0 0.0 3.0 43 59
r 0.80288 1 2 tcp 1040 ------- 0 0.0 3.0 41 56
+ 0.80288 2 3 tcp 1040 ------- 0 0.0 3.0 41 56
- 0.80288 2 3 tcp 1040 ------- 0 0.0 3.0 41 56
r 0.80456 2 3 tcp 1040 ------- 0 0.0 3.0 39 54
r 0.80656 3 2 ack 40 ------- 0 3.0 0.0 38 73
+ 0.80656 2 1 ack 40 ------- 0 3.0 0.0 38 73
- 0.80656 2 1 ack 40 ------- 0 3.0 0.0 38 73
- 0.80784 0 1 tcp 1040 ------- 0 0.0 3.0 46 63
r 0.80952 0 1 tcp 1040 ------- 0 0.0 3.0 44 60
+ 0.80952 1 2 tcp 1040 ------- 0 0.0 3.0 44 60
- 0.80952 1 2 tcp 1040 ------- 0 0.0 3.0 44 60
r 0.81056 1 0 ack 40 ------- 0 3.0 0.0 36 69
+ 0.81056 0 1 tcp 1040 ------- 0 0.0 3.0 54 74
+ 0.81056 0 1 tcp 1040 ------- 0 0.0 3.0 55 75
+ 0.81056 0 1 tcp 1040 ------- 0 0.0 3.0 56 76
r 0.8112 1 2 tcp 1040 ------- 0 0.0 3.0 42 58
+ 0.8112 2 3 tcp 1040 ------- 0 0.0 3.0 42 58
- 0.8112 2 3 tcp 1040 ------- 0 0.0 3.0 42 58
r 0.81288 2 3 tcp 1040 ------- 0 0.0 3.0 40 55
+ 0.81288 3 2 ack 40 ------- 0 3.0 0.0 40 77
- 0.81288 3 2 ack 40 ------- 0 3.0 0.0 40 77
- 0.81616 0 1 tcp 1040 ------- 0 0.0 3.0 47 64
r 0.81688 2 1 ack 40 ------- 0 3.0 0.0 38 73
+ 0.81688 1 0 ack 40 ------- 0 3.0 0.0 38 73
- 0.81688 1 0 ack 40 ------- 0 3.0 0.0 38 73
r 0.81784 0 1 tcp 1040 ------- 0 0.0 3.0 45 62
+ 0.81784 1 2 tcp 1040 ------- 0 0.0 3.0 45 62
- 0.81784 1 2 tcp 1040 ------- 0 0.0 3.0 45 62
r 0.81952 1 2 tcp 1040 ------- 0 0.0 3.0 43 59
+ 0.81952 2 3 tcp 1040 ------- 0 0.0 3.0 43 59
- 0.81952 2 3 tcp 1040 ------- 0 0.0 3.0 43 59
r 0.8212 2 3 tcp 1040 ------- 0 0.0 3.0 41 56
r 0.8232 3 2 ack 40 ------- 0 3.0 0.0 40 77
+ 0.8232 2 1 ack 40 ------- 0 3.0 0.0 40 77
- 0.8232 2 1 ack 40 ------- 0 3.0 0.0 40 77
- 0.82448 0 1 tcp 1040 ------- 0 0.0 3.0 48 66
r 0.82616 0 1 tcp 1040 ------- 0 0.0 3.0 46 63
+ 0.82616 1 2 tcp 1040 ------- 0 0.0 3.0 46 63
- 0.82616 1 2 tcp 1040 ------- 0 0.0 3.0 46 63
r 0.8272 1 0 ack 40 ------- 0 3.0 0.0 38 73
+ 0.8272 0 1 tcp 1040 ------- 0 0.0 3.0 57 78
+ 0.8272 0 1 tcp 1040 ------- 0 0.0 3.0 58 79
r 0.82784 1 2 tcp 1040 ------- 0 0.0 3.0 44 60
+ 0.82784 2 3 tcp 1040 ------- 0 0.0 3.0 44 60
- 0.82784 2 3 tcp 1040 ------- 0 0.0 3.0 44 60
r 0.82952 2 3 tcp 1040 ------- 0 0.0 3.0 42 58
+ 0.82952 3 2 ack 40 ------- 0 3.0 0.0 42 80
- 0.82952 3 2 ack 40 ------- 0 3.0 0.0 42 80
- 0.8328 0 1 tcp 1040 ------- 0 0.0 3.0 49 67
r 0.83352 2 1 ack 40 ------- 0 3.0 0.0 40 77
+ 0.83352 1 0 ack 40 ------- 0 3.0 0.0 40 77
- 0.83352 1 0 ack 40 ------- 0 3.0 0.0 40 77
r 0.83448 0 1 tcp 1040 ------- 0 0.0 3.0 47 64
+ 0.83448 1 2 tcp 1040 ------- 0 0.0 3.0 47 64
- 0.83448 1 2 tcp 1040 ------- 0 0.0 3.0 47 64
r 0.83616 1 2 tcp 1040 ------- 0 0.0 3.0 45 62
+ 0.83616 2 3 tcp 1040 ------- 0 0.0 3.0 45 62
- 0.83616 2 3 tcp 1040 ------- 0 0.0 3.0 45 62
r 0.83784 2 3 tcp 1040 ------- 0 0.0 3.0 43 59
r 0.83984 3 2 ack 40 ------- 0 3.0 0.0 42 80
+ 0.83984 2 1 ack 40 ------- 0 3.0 0.0 42 80
- 0.83984 2 1 ack 40 ------- 0 3.0 0.0 42 80
- 0.84112 0 1 tcp 1040 ------- 0 0.0 3.0 50 68
r 0.8428 0 1 tcp 1040 ------- 0 0.0 3.0 48 66
+ 0.8428 1 2 tcp 1040 ------- 0 0.0 3.0 48 66
- 0.8428 1 2 tcp 1040 ------- 0 0.0 3.0 48 66
r 0.84384 1 0 ack 40 ------- 0 3.0 0.0 40 77
+ 0.84384 0 1 tcp 1040 ------- 0 0.0 3.0 59 81
+ 0.84384 0 1 tcp 1040 ------- 0 0.0 3.0 60 82
r 0.84448 1 2 tcp 1040 ------- 0 0.0 3.0 46 63
+ 0.84448 2 3 tcp 1040 ------- 0 0.0 3.0 46 63
- 0.84448 2 3 tcp 1040 ------- 0 0.0 3.0 46 63
r 0.84616 2 3 tcp 1040 ------- 0 0.0 3.0 44 60
+ 0.84616 3 2 ack 40 ------- 0 3.0 0.0 44 83
- 0.84616 3 2 ack 40 ------- 0 3.0 0.0 44 83
- 0.84944 0 1 tcp 1040 ------- 0 0.0 3.0 51 70
r 0.85016 2 1 ack 40 ------- 0 3.0 0.0 42 80
+ 0.85016 1 0 ack 40 ------- 0 3.0 0.0 42 80
- 0.85016 1 0 ack 40 ------- 0 3.0 0.0 42 80
r 0.85112 0 1 tcp 1040 ------- 0 0.0 3.0 49 67
+ 0.85112 1 2 tcp 1040 ------- 0 0.0 3.0 49 67
- 0.85112 1 2 tcp 1040 ------- 0 0.0 3.0 49 67
r 0.8528 1 2 tcp 1040 ------- 0 0.0 3.0 47 64
+ 0.8528 2 3 tcp 1040 ------- 0 0.0 3.0 47 64
- 0.8528 2 3 tcp 1040 ------- 0 0.0 3.0 47 64
r 0.85448 2 3 tcp 1040 ------- 0 0.0 3.0 45 62
r 0.85648 3 2 ack 40 ------- 0 3.0 0.0 44 83
+ 0.85648 2 1 ack 40 ------- 0 3.0 0.0 44 83
- 0.85648 2 1 ack 40 ------- 0 3.0 0.0 44 83